V -t * -v 1.0a5 -a 0
W -t * -x 604.953125 -y 594.812500
A -t * -n 1 -p 0 -o 0x7fffffff -c 30 -a 1
A -t * -h 1 -m 1073741823 -s 0
c -t * -i 13 -n black
c -t * -i 15 -n black
n -t * -a 4 -s 4 -S UP -v circle -c black -i black -x 506.640594 -y 504.406219 -Z 0.0
n -t * -a 0 -s 0 -S UP -v circle -c black -i black -x 504.578094 -y 587.593750 -Z 0.0
n -t * -a 5 -s 5 -S UP -v circle -c black -i black -x 604.953125 -y 516.093750 -Z 0.0
n -t * -a 1 -s 1 -S UP -v circle -c black -i black -x 522.796875 -y 554.937500 -Z 0.0
n -t * -a 2 -s 2 -S UP -v circle -c black -i black -x 589.140625 -y 551.500000 -Z 0.0
n -t * -a 3 -s 3 -S UP -v circle -c black -i black -x 601.171875 -y 594.812500 -Z 0.0
l -t * -s 5 -d 2 -S UP -r 10000000 -D 0.02 -c black -o 142.5deg
l -t * -s 4 -d 1 -S UP -r 10000000 -D 0.02 -c black -o 74.6deg
l -t * -s 3 -d 2 -S UP -r 10000000 -D 0.02 -c black -o 247.7deg
l -t * -s 2 -d 1 -S UP -r 1500000 -D 0.02 -c black -o 181.5deg
l -t * -s 1 -d 0 -S UP -r 10000000 -D 0.02 -c black -o 118.1deg
q -t * -s 1 -d 2 -a 0.5
q -t * -s 2 -d 1 -a 0.5
q -t * -s 2 -d 5 -a 0.5
q -t * -s 5 -d 2 -a 0.5
q -t * -s 0 -d 1 -a 0.5
q -t * -s 1 -d 0 -a 0.5
q -t * -s 1 -d 4 -a 0.5
q -t * -s 2 -d 3 -a 0.5
q -t * -s 3 -d 2 -a 0.5
q -t * -s 4 -d 1 -a 0.5
+ -t 0 -s 0 -d 1 -p tcp -e 40 -c 1 -i 0 -a 1 -x {0.0 3.0 0 ------- null}
- -t 0 -s 0 -d 1 -p tcp -e 40 -c 1 -i 0 -a 1 -x {0.0 3.0 0 ------- null}
h -t 0 -s 0 -d 1 -p tcp -e 40 -c 1 -i 0 -a 1 -x {0.0 3.0 -1 ------- null}
r -t 0.020032 -s 0 -d 1 -p tcp -e 40 -c 1 -i 0 -a 1 -x {0.0 3.0 0 ------- null}
+ -t 0.020032 -s 1 -d 2 -p tcp -e 40 -c 1 -i 0 -a 1 -x {0.0 3.0 0 ------- null}
- -t 0.020032 -s 1 -d 2 -p tcp -e 40 -c 1 -i 0 -a 1 -x {0.0 3.0 0 ------- null}
h -t 0.020032 -s 1 -d 2 -p tcp -e 40 -c 1 -i 0 -a 1 -x {0.0 3.0 -1 ------- null}
r -t 0.0402453333333333 -s 1 -d 2 -p tcp -e 40 -c 1 -i 0 -a 1 -x {0.0 3.0 0 ------- null}
+ -t 0.0402453333333333 -s 2 -d 3 -p tcp -e 40 -c 1 -i 0 -a 1 -x {0.0 3.0 0 ------- null}
- -t 0.0402453333333333 -s 2 -d 3 -p tcp -e 40 -c 1 -i 0 -a 1 -x {0.0 3.0 0 ------- null}
h -t 0.0402453333333333 -s 2 -d 3 -p tcp -e 40 -c 1 -i 0 -a 1 -x {0.0 3.0 -1 ------- null}
r -t 0.0602773333333333 -s 2 -d 3 -p tcp -e 40 -c 1 -i 0 -a 1 -x {0.0 3.0 0 ------- null}
+ -t 0.0602773333333333 -s 3 -d 2 -p ack -e 500 -c 1 -i 1 -a 1 -x {3.0 0.0 0 ------- null}
- -t 0.0602773333333333 -s 3 -d 2 -p ack -e 500 -c 1 -i 1 -a 1 -x {3.0 0.0 0 ------- null}
h -t 0.0602773333333333 -s 3 -d 2 -p ack -e 500 -c 1 -i 1 -a 1 -x {3.0 0.0 -1 ------- null}
r -t 0.0806773333333333 -s 3 -d 2 -p ack -e 500 -c 1 -i 1 -a 1 -x {3.0 0.0 0 ------- null}
+ -t 0.0806773333333333 -s 2 -d 1 -p ack -e 500 -c 1 -i 1 -a 1 -x {3.0 0.0 0 ------- null}
- -t 0.0806773333333333 -s 2 -d 1 -p ack -e 500 -c 1 -i 1 -a 1 -x {3.0 0.0 0 ------- null}
h -t 0.0806773333333333 -s 2 -d 1 -p ack -e 500 -c 1 -i 1 -a 1 -x {3.0 0.0 -1 ------- null}
r -t 0.103344 -s 2 -d 1 -p ack -e 500 -c 1 -i 1 -a 1 -x {3.0 0.0 0 ------- null}
+ -t 0.103344 -s 1 -d 0 -p ack -e 500 -c 1 -i 1 -a 1 -x {3.0 0.0 0 ------- null}
- -t 0.103344 -s 1 -d 0 -p ack -e 500 -c 1 -i 1 -a 1 -x {3.0 0.0 0 ------- null}
h -t 0.103344 -s 1 -d 0 -p ack -e 500 -c 1 -i 1 -a 1 -x {3.0 0.0 -1 ------- null}
r -t 0.123744 -s 1 -d 0 -p ack -e 500 -c 1 -i 1 -a 1 -x {3.0 0.0 0 ------- null}
+ -t 0.123744 -s 0 -d 1 -p tcp -e 1040 -c 1 -i 2 -a 1 -x {0.0 3.0 1 ------- null}
- -t 0.123744 -s 0 -d 1 -p tcp -e 1040 -c 1 -i 2 -a 1 -x {0.0 3.0 1 ------- null}
h -t 0.123744 -s 0 -d 1 -p tcp -e 1040 -c 1 -i 2 -a 1 -x {0.0 3.0 -1 ------- null}
r -t 0.144576 -s 0 -d 1 -p tcp -e 1040 -c 1 -i 2 -a 1 -x {0.0 3.0 1 ------- null}
+ -t 0.144576 -s 1 -d 2 -p tcp -e 1040 -c 1 -i 2 -a 1 -x {0.0 3.0 1 ------- null}
- -t 0.144576 -s 1 -d 2 -p tcp -e 1040 -c 1 -i 2 -a 1 -x {0.0 3.0 1 ------- null}
h -t 0.144576 -s 1 -d 2 -p tcp -e 1040 -c 1 -i 2 -a 1 -x {0.0 3.0 -1 ------- null}
r -t 0.170122666666667 -s 1 -d 2 -p tcp -e 1040 -c 1 -i 2 -a 1 -x {0.0 3.0 1 ------- null}
+ -t 0.170122666666667 -s 2 -d 3 -p tcp -e 1040 -c 1 -i 2 -a 1 -x {0.0 3.0 1 ------- null}
- -t 0.170122666666667 -s 2 -d 3 -p tcp -e 1040 -c 1 -i 2 -a 1 -x {0.0 3.0 1 ------- null}
h -t 0.170122666666667 -s 2 -d 3 -p tcp -e 1040 -c 1 -i 2 -a 1 -x {0.0 3.0 -1 ------- null}
r -t 0.190954666666667 -s 2 -d 3 -p tcp -e 1040 -c 1 -i 2 -a 1 -x {0.0 3.0 1 ------- null}
+ -t 0.190954666666667 -s 3 -d 2 -p ack -e 500 -c 1 -i 3 -a 1 -x {3.0 0.0 1 ------- null}
- -t 0.190954666666667 -s 3 -d 2 -p ack -e 500 -c 1 -i 3 -a 1 -x {3.0 0.0 1 ------- null}
h -t 0.190954666666667 -s 3 -d 2 -p ack -e 500 -c 1 -i 3 -a 1 -x {3.0 0.0 -1 ------- null}
r -t 0.211354666666667 -s 3 -d 2 -p ack -e 500 -c 1 -i 3 -a 1 -x {3.0 0.0 1 ------- null}
+ -t 0.211354666666667 -s 2 -d 1 -p ack -e 500 -c 1 -i 3 -a 1 -x {3.0 0.0 1 ------- null}
- -t 0.211354666666667 -s 2 -d 1 -p ack -e 500 -c 1 -i 3 -a 1 -x {3.0 0.0 1 ------- null}
h -t 0.211354666666667 -s 2 -d 1 -p ack -e 500 -c 1 -i 3 -a 1 -x {3.0 0.0 -1 ------- null}
r -t 0.234021333333333 -s 2 -d 1 -p ack -e 500 -c 1 -i 3 -a 1 -x {3.0 0.0 1 ------- null}
+ -t 0.234021333333333 -s 1 -d 0 -p ack -e 500 -c 1 -i 3 -a 1 -x {3.0 0.0 1 ------- null}
- -t 0.234021333333333 -s 1 -d 0 -p ack -e 500 -c 1 -i 3 -a 1 -x {3.0 0.0 1 ------- null}
h -t 0.234021333333333 -s 1 -d 0 -p ack -e 500 -c 1 -i 3 -a 1 -x {3.0 0.0 -1 ------- null}
r -t 0.254421333333333 -s 1 -d 0 -p ack -e 500 -c 1 -i 3 -a 1 -x {3.0 0.0 1 ------- null}
+ -t 0.254421333333333 -s 0 -d 1 -p tcp -e 1040 -c 1 -i 4 -a 1 -x {0.0 3.0 2 ------- null}
- -t 0.254421333333333 -s 0 -d 1 -p tcp -e 1040 -c 1 -i 4 -a 1 -x {0.0 3.0 2 ------- null}
h -t 0.254421333333333 -s 0 -d 1 -p tcp -e 1040 -c 1 -i 4 -a 1 -x {0.0 3.0 -1 ------- null}
+ -t 0.254421333333333 -s 0 -d 1 -p tcp -e 1040 -c 1 -i 5 -a 1 -x {0.0 3.0 3 ------- null}
- -t 0.255253333333333 -s 0 -d 1 -p tcp -e 1040 -c 1 -i 5 -a 1 -x {0.0 3.0 3 ------- null}
h -t 0.255253333333333 -s 0 -d 1 -p tcp -e 1040 -c 1 -i 5 -a 1 -x {0.0 3.0 -1 ------- null}
r -t 0.275253333333333 -s 0 -d 1 -p tcp -e 1040 -c 1 -i 4 -a 1 -x {0.0 3.0 2 ------- null}
+ -t 0.275253333333333 -s 1 -d 2 -p tcp -e 1040 -c 1 -i 4 -a 1 -x {0.0 3.0 2 ------- null}
- -t 0.275253333333333 -s 1 -d 2 -p tcp -e 1040 -c 1 -i 4 -a 1 -x {0.0 3.0 2 ------- null}
h -t 0.275253333333333 -s 1 -d 2 -p tcp -e 1040 -c 1 -i 4 -a 1 -x {0.0 3.0 -1 ------- null}
r -t 0.276085333333333 -s 0 -d 1 -p tcp -e 1040 -c 1 -i 5 -a 1 -x {0.0 3.0 3 ------- null}
+ -t 0.276085333333333 -s 1 -d 2 -p tcp -e 1040 -c 1 -i 5 -a 1 -x {0.0 3.0 3 ------- null}
- -t 0.2808 -s 1 -d 2 -p tcp -e 1040 -c 1 -i 5 -a 1 -x {0.0 3.0 3 ------- null}
h -t 0.2808 -s 1 -d 2 -p tcp -e 1040 -c 1 -i 5 -a 1 -x {0.0 3.0 -1 ------- null}
r -t 0.3008 -s 1 -d 2 -p tcp -e 1040 -c 1 -i 4 -a 1 -x {0.0 3.0 2 ------- null}
+ -t 0.3008 -s 2 -d 3 -p tcp -e 1040 -c 1 -i 4 -a 1 -x {0.0 3.0 2 ------- null}
- -t 0.3008 -s 2 -d 3 -p tcp -e 1040 -c 1 -i 4 -a 1 -x {0.0 3.0 2 ------- null}
h -t 0.3008 -s 2 -d 3 -p tcp -e 1040 -c 1 -i 4 -a 1 -x {0.0 3.0 -1 ------- null}
r -t 0.306346666666667 -s 1 -d 2 -p tcp -e 1040 -c 1 -i 5 -a 1 -x {0.0 3.0 3 ------- null}
+ -t 0.306346666666667 -s 2 -d 3 -p tcp -e 1040 -c 1 -i 5 -a 1 -x {0.0 3.0 3 ------- null}
- -t 0.306346666666667 -s 2 -d 3 -p tcp -e 1040 -c 1 -i 5 -a 1 -x {0.0 3.0 3 ------- null}
h -t 0.306346666666667 -s 2 -d 3 -p tcp -e 1040 -c 1 -i 5 -a 1 -x {0.0 3.0 -1 ------- null}
r -t 0.321632 -s 2 -d 3 -p tcp -e 1040 -c 1 -i 4 -a 1 -x {0.0 3.0 2 ------- null}
+ -t 0.321632 -s 3 -d 2 -p ack -e 500 -c 1 -i 6 -a 1 -x {3.0 0.0 2 ------- null}
- -t 0.321632 -s 3 -d 2 -p ack -e 500 -c 1 -i 6 -a 1 -x {3.0 0.0 2 ------- null}
h -t 0.321632 -s 3 -d 2 -p ack -e 500 -c 1 -i 6 -a 1 -x {3.0 0.0 -1 ------- null}
r -t 0.327178666666667 -s 2 -d 3 -p tcp -e 1040 -c 1 -i 5 -a 1 -x {0.0 3.0 3 ------- null}
+ -t 0.327178666666667 -s 3 -d 2 -p ack -e 500 -c 1 -i 7 -a 1 -x {3.0 0.0 3 ------- null}
- -t 0.327178666666667 -s 3 -d 2 -p ack -e 500 -c 1 -i 7 -a 1 -x {3.0 0.0 3 ------- null}
h -t 0.327178666666667 -s 3 -d 2 -p ack -e 500 -c 1 -i 7 -a 1 -x {3.0 0.0 -1 ------- null}
r -t 0.342032 -s 3 -d 2 -p ack -e 500 -c 1 -i 6 -a 1 -x {3.0 0.0 2 ------- null}
+ -t 0.342032 -s 2 -d 1 -p ack -e 500 -c 1 -i 6 -a 1 -x {3.0 0.0 2 ------- null}
- -t 0.342032 -s 2 -d 1 -p ack -e 500 -c 1 -i 6 -a 1 -x {3.0 0.0 2 ------- null}
h -t 0.342032 -s 2 -d 1 -p ack -e 500 -c 1 -i 6 -a 1 -x {3.0 0.0 -1 ------- null}
r -t 0.347578666666667 -s 3 -d 2 -p ack -e 500 -c 1 -i 7 -a 1 -x {3.0 0.0 3 ------- null}
+ -t 0.347578666666667 -s 2 -d 1 -p ack -e 500 -c 1 -i 7 -a 1 -x {3.0 0.0 3 ------- null}
- -t 0.347578666666667 -s 2 -d 1 -p ack -e 500 -c 1 -i 7 -a 1 -x {3.0 0.0 3 ------- null}
h -t 0.347578666666667 -s 2 -d 1 -p ack -e 500 -c 1 -i 7 -a 1 -x {3.0 0.0 -1 ------- null}
r -t 0.364698666666667 -s 2 -d 1 -p ack -e 500 -c 1 -i 6 -a 1 -x {3.0 0.0 2 ------- null}
+ -t 0.364698666666667 -s 1 -d 0 -p ack -e 500 -c 1 -i 6 -a 1 -x {3.0 0.0 2 ------- null}
- -t 0.364698666666667 -s 1 -d 0 -p ack -e 500 -c 1 -i 6 -a 1 -x {3.0 0.0 2 ------- null}
h -t 0.364698666666667 -s 1 -d 0 -p ack -e 500 -c 1 -i 6 -a 1 -x {3.0 0.0 -1 ------- null}
r -t 0.370245333333333 -s 2 -d 1 -p ack -e 500 -c 1 -i 7 -a 1 -x {3.0 0.0 3 ------- null}
+ -t 0.370245333333333 -s 1 -d 0 -p ack -e 500 -c 1 -i 7 -a 1 -x {3.0 0.0 3 ------- null}
- -t 0.370245333333333 -s 1 -d 0 -p ack -e 500 -c 1 -i 7 -a 1 -x {3.0 0.0 3 ------- null}
h -t 0.370245333333333 -s 1 -d 0 -p ack -e 500 -c 1 -i 7 -a 1 -x {3.0 0.0 -1 ------- null}
r -t 0.385098666666667 -s 1 -d 0 -p ack -e 500 -c 1 -i 6 -a 1 -x {3.0 0.0 2 ------- null}
+ -t 0.385098666666667 -s 0 -d 1 -p tcp -e 1040 -c 1 -i 8 -a 1 -x {0.0 3.0 4 ------- null}
- -t 0.385098666666667 -s 0 -d 1 -p tcp -e 1040 -c 1 -i 8 -a 1 -x {0.0 3.0 4 ------- null}
h -t 0.385098666666667 -s 0 -d 1 -p tcp -e 1040 -c 1 -i 8 -a 1 -x {0.0 3.0 -1 ------- null}
+ -t 0.385098666666667 -s 0 -d 1 -p tcp -e 1040 -c 1 -i 9 -a 1 -x {0.0 3.0 5 ------- null}
- -t 0.385930666666667 -s 0 -d 1 -p tcp -e 1040 -c 1 -i 9 -a 1 -x {0.0 3.0 5 ------- null}
h -t 0.385930666666667 -s 0 -d 1 -p tcp -e 1040 -c 1 -i 9 -a 1 -x {0.0 3.0 -1 ------- null}
r -t 0.390645333333333 -s 1 -d 0 -p ack -e 500 -c 1 -i 7 -a 1 -x {3.0 0.0 3 ------- null}
+ -t 0.390645333333333 -s 0 -d 1 -p tcp -e 1040 -c 1 -i 10 -a 1 -x {0.0 3.0 6 ------- null}
- -t 0.390645333333333 -s 0 -d 1 -p tcp -e 1040 -c 1 -i 10 -a 1 -x {0.0 3.0 6 ------- null}
h -t 0.390645333333333 -s 0 -d 1 -p tcp -e 1040 -c 1 -i 10 -a 1 -x {0.0 3.0 -1 ------- null}
+ -t 0.390645333333333 -s 0 -d 1 -p tcp -e 1040 -c 1 -i 11 -a 1 -x {0.0 3.0 7 ------- null}
- -t 0.391477333333333 -s 0 -d 1 -p tcp -e 1040 -c 1 -i 11 -a 1 -x {0.0 3.0 7 ------- null}
h -t 0.391477333333333 -s 0 -d 1 -p tcp -e 1040 -c 1 -i 11 -a 1 -x {0.0 3.0 -1 ------- null}
r -t 0.405930666666667 -s 0 -d 1 -p tcp -e 1040 -c 1 -i 8 -a 1 -x {0.0 3.0 4 ------- null}
+ -t 0.405930666666667 -s 1 -d 2 -p tcp -e 1040 -c 1 -i 8 -a 1 -x {0.0 3.0 4 ------- null}
- -t 0.405930666666667 -s 1 -d 2 -p tcp -e 1040 -c 1 -i 8 -a 1 -x {0.0 3.0 4 ------- null}
h -t 0.405930666666667 -s 1 -d 2 -p tcp -e 1040 -c 1 -i 8 -a 1 -x {0.0 3.0 -1 ------- null}
r -t 0.406762666666667 -s 0 -d 1 -p tcp -e 1040 -c 1 -i 9 -a 1 -x {0.0 3.0 5 ------- null}
+ -t 0.406762666666667 -s 1 -d 2 -p tcp -e 1040 -c 1 -i 9 -a 1 -x {0.0 3.0 5 ------- null}
- -t 0.411477333333333 -s 1 -d 2 -p tcp -e 1040 -c 1 -i 9 -a 1 -x {0.0 3.0 5 ------- null}
h -t 0.411477333333333 -s 1 -d 2 -p tcp -e 1040 -c 1 -i 9 -a 1 -x {0.0 3.0 -1 ------- null}
r -t 0.411477333333333 -s 0 -d 1 -p tcp -e 1040 -c 1 -i 10 -a 1 -x {0.0 3.0 6 ------- null}
+ -t 0.411477333333333 -s 1 -d 2 -p tcp -e 1040 -c 1 -i 10 -a 1 -x {0.0 3.0 6 ------- null}
r -t 0.412309333333333 -s 0 -d 1 -p tcp -e 1040 -c 1 -i 11 -a 1 -x {0.0 3.0 7 ------- null}
+ -t 0.412309333333333 -s 1 -d 2 -p tcp -e 1040 -c 1 -i 11 -a 1 -x {0.0 3.0 7 ------- null}
- -t 0.417024 -s 1 -d 2 -p tcp -e 1040 -c 1 -i 10 -a 1 -x {0.0 3.0 6 ------- null}
h -t 0.417024 -s 1 -d 2 -p tcp -e 1040 -c 1 -i 10 -a 1 -x {0.0 3.0 -1 ------- null}
- -t 0.422570666666667 -s 1 -d 2 -p tcp -e 1040 -c 1 -i 11 -a 1 -x {0.0 3.0 7 ------- null}
h -t 0.422570666666667 -s 1 -d 2 -p tcp -e 1040 -c 1 -i 11 -a 1 -x {0.0 3.0 -1 ------- null}
r -t 0.431477333333333 -s 1 -d 2 -p tcp -e 1040 -c 1 -i 8 -a 1 -x {0.0 3.0 4 ------- null}
+ -t 0.431477333333333 -s 2 -d 3 -p tcp -e 1040 -c 1 -i 8 -a 1 -x {0.0 3.0 4 ------- null}
- -t 0.431477333333333 -s 2 -d 3 -p tcp -e 1040 -c 1 -i 8 -a 1 -x {0.0 3.0 4 ------- null}
h -t 0.431477333333333 -s 2 -d 3 -p tcp -e 1040 -c 1 -i 8 -a 1 -x {0.0 3.0 -1 ------- null}
r -t 0.437024 -s 1 -d 2 -p tcp -e 1040 -c 1 -i 9 -a 1 -x {0.0 3.0 5 ------- null}
+ -t 0.437024 -s 2 -d 3 -p tcp -e 1040 -c 1 -i 9 -a 1 -x {0.0 3.0 5 ------- null}
- -t 0.437024 -s 2 -d 3 -p tcp -e 1040 -c 1 -i 9 -a 1 -x {0.0 3.0 5 ------- null}
h -t 0.437024 -s 2 -d 3 -p tcp -e 1040 -c 1 -i 9 -a 1 -x {0.0 3.0 -1 ------- null}
r -t 0.442570666666667 -s 1 -d 2 -p tcp -e 1040 -c 1 -i 10 -a 1 -x {0.0 3.0 6 ------- null}
+ -t 0.442570666666667 -s 2 -d 3 -p tcp -e 1040 -c 1 -i 10 -a 1 -x {0.0 3.0 6 ------- null}
- -t 0.442570666666667 -s 2 -d 3 -p tcp -e 1040 -c 1 -i 10 -a 1 -x {0.0 3.0 6 ------- null}
h -t 0.442570666666667 -s 2 -d 3 -p tcp -e 1040 -c 1 -i 10 -a 1 -x {0.0 3.0 -1 ------- null}
r -t 0.448117333333333 -s 1 -d 2 -p tcp -e 1040 -c 1 -i 11 -a 1 -x {0.0 3.0 7 ------- null}
+ -t 0.448117333333333 -s 2 -d 3 -p tcp -e 1040 -c 1 -i 11 -a 1 -x {0.0 3.0 7 ------- null}
- -t 0.448117333333333 -s 2 -d 3 -p tcp -e 1040 -c 1 -i 11 -a 1 -x {0.0 3.0 7 ------- null}
h -t 0.448117333333333 -s 2 -d 3 -p tcp -e 1040 -c 1 -i 11 -a 1 -x {0.0 3.0 -1 ------- null}
r -t 0.452309333333333 -s 2 -d 3 -p tcp -e 1040 -c 1 -i 8 -a 1 -x {0.0 3.0 4 ------- null}
+ -t 0.452309333333333 -s 3 -d 2 -p ack -e 500 -c 1 -i 12 -a 1 -x {3.0 0.0 4 ------- null}
- -t 0.452309333333333 -s 3 -d 2 -p ack -e 500 -c 1 -i 12 -a 1 -x {3.0 0.0 4 ------- null}
h -t 0.452309333333333 -s 3 -d 2 -p ack -e 500 -c 1 -i 12 -a 1 -x {3.0 0.0 -1 ------- null}
r -t 0.457856 -s 2 -d 3 -p tcp -e 1040 -c 1 -i 9 -a 1 -x {0.0 3.0 5 ------- null}
+ -t 0.457856 -s 3 -d 2 -p ack -e 500 -c 1 -i 13 -a 1 -x {3.0 0.0 5 ------- null}
- -t 0.457856 -s 3 -d 2 -p ack -e 500 -c 1 -i 13 -a 1 -x {3.0 0.0 5 ------- null}
h -t 0.457856 -s 3 -d 2 -p ack -e 500 -c 1 -i 13 -a 1 -x {3.0 0.0 -1 ------- null}
r -t 0.463402666666667 -s 2 -d 3 -p tcp -e 1040 -c 1 -i 10 -a 1 -x {0.0 3.0 6 ------- null}
+ -t 0.463402666666667 -s 3 -d 2 -p ack -e 500 -c 1 -i 14 -a 1 -x {3.0 0.0 6 ------- null}
- -t 0.463402666666667 -s 3 -d 2 -p ack -e 500 -c 1 -i 14 -a 1 -x {3.0 0.0 6 ------- null}
h -t 0.463402666666667 -s 3 -d 2 -p ack -e 500 -c 1 -i 14 -a 1 -x {3.0 0.0 -1 ------- null}
r -t 0.468949333333333 -s 2 -d 3 -p tcp -e 1040 -c 1 -i 11 -a 1 -x {0.0 3.0 7 ------- null}
+ -t 0.468949333333333 -s 3 -d 2 -p ack -e 500 -c 1 -i 15 -a 1 -x {3.0 0.0 7 ------- null}
- -t 0.468949333333333 -s 3 -d 2 -p ack -e 500 -c 1 -i 15 -a 1 -x {3.0 0.0 7 ------- null}
h -t 0.468949333333333 -s 3 -d 2 -p ack -e 500 -c 1 -i 15 -a 1 -x {3.0 0.0 -1 ------- null}
r -t 0.472709333333333 -s 3 -d 2 -p ack -e 500 -c 1 -i 12 -a 1 -x {3.0 0.0 4 ------- null}
+ -t 0.472709333333333 -s 2 -d 1 -p ack -e 500 -c 1 -i 12 -a 1 -x {3.0 0.0 4 ------- null}
- -t 0.472709333333333 -s 2 -d 1 -p ack -e 500 -c 1 -i 12 -a 1 -x {3.0 0.0 4 ------- null}
h -t 0.472709333333333 -s 2 -d 1 -p ack -e 500 -c 1 -i 12 -a 1 -x {3.0 0.0 -1 ------- null}
r -t 0.478256 -s 3 -d 2 -p ack -e 500 -c 1 -i 13 -a 1 -x {3.0 0.0 5 ------- null}
+ -t 0.478256 -s 2 -d 1 -p ack -e 500 -c 1 -i 13 -a 1 -x {3.0 0.0 5 ------- null}
- -t 0.478256 -s 2 -d 1 -p ack -e 500 -c 1 -i 13 -a 1 -x {3.0 0.0 5 ------- null}
h -t 0.478256 -s 2 -d 1 -p ack -e 500 -c 1 -i 13 -a 1 -x {3.0 0.0 -1 ------- null}
r -t 0.483802666666667 -s 3 -d 2 -p ack -e 500 -c 1 -i 14 -a 1 -x {3.0 0.0 6 ------- null}
+ -t 0.483802666666667 -s 2 -d 1 -p ack -e 500 -c 1 -i 14 -a 1 -x {3.0 0.0 6 ------- null}
- -t 0.483802666666667 -s 2 -d 1 -p ack -e 500 -c 1 -i 14 -a 1 -x {3.0 0.0 6 ------- null}
h -t 0.483802666666667 -s 2 -d 1 -p ack -e 500 -c 1 -i 14 -a 1 -x {3.0 0.0 -1 ------- null}
r -t 0.489349333333333 -s 3 -d 2 -p ack -e 500 -c 1 -i 15 -a 1 -x {3.0 0.0 7 ------- null}
+ -t 0.489349333333333 -s 2 -d 1 -p ack -e 500 -c 1 -i 15 -a 1 -x {3.0 0.0 7 ------- null}
- -t 0.489349333333333 -s 2 -d 1 -p ack -e 500 -c 1 -i 15 -a 1 -x {3.0 0.0 7 ------- null}
h -t 0.489349333333333 -s 2 -d 1 -p ack -e 500 -c 1 -i 15 -a 1 -x {3.0 0.0 -1 ------- null}
r -t 0.495376 -s 2 -d 1 -p ack -e 500 -c 1 -i 12 -a 1 -x {3.0 0.0 4 ------- null}
+ -t 0.495376 -s 1 -d 0 -p ack -e 500 -c 1 -i 12 -a 1 -x {3.0 0.0 4 ------- null}
- -t 0.495376 -s 1 -d 0 -p ack -e 500 -c 1 -i 12 -a 1 -x {3.0 0.0 4 ------- null}
h -t 0.495376 -s 1 -d 0 -p ack -e 500 -c 1 -i 12 -a 1 -x {3.0 0.0 -1 ------- null}
r -t 0.500922666666667 -s 2 -d 1 -p ack -e 500 -c 1 -i 13 -a 1 -x {3.0 0.0 5 ------- null}
+ -t 0.500922666666667 -s 1 -d 0 -p ack -e 500 -c 1 -i 13 -a 1 -x {3.0 0.0 5 ------- null}
- -t 0.500922666666667 -s 1 -d 0 -p ack -e 500 -c 1 -i 13 -a 1 -x {3.0 0.0 5 ------- null}
h -t 0.500922666666667 -s 1 -d 0 -p ack -e 500 -c 1 -i 13 -a 1 -x {3.0 0.0 -1 ------- null}
r -t 0.506469333333333 -s 2 -d 1 -p ack -e 500 -c 1 -i 14 -a 1 -x {3.0 0.0 6 ------- null}
+ -t 0.506469333333333 -s 1 -d 0 -p ack -e 500 -c 1 -i 14 -a 1 -x {3.0 0.0 6 ------- null}
- -t 0.506469333333333 -s 1 -d 0 -p ack -e 500 -c 1 -i 14 -a 1 -x {3.0 0.0 6 ------- null}
h -t 0.506469333333333 -s 1 -d 0 -p ack -e 500 -c 1 -i 14 -a 1 -x {3.0 0.0 -1 ------- null}
r -t 0.512016 -s 2 -d 1 -p ack -e 500 -c 1 -i 15 -a 1 -x {3.0 0.0 7 ------- null}
+ -t 0.512016 -s 1 -d 0 -p ack -e 500 -c 1 -i 15 -a 1 -x {3.0 0.0 7 ------- null}
- -t 0.512016 -s 1 -d 0 -p ack -e 500 -c 1 -i 15 -a 1 -x {3.0 0.0 7 ------- null}
h -t 0.512016 -s 1 -d 0 -p ack -e 500 -c 1 -i 15 -a 1 -x {3.0 0.0 -1 ------- null}
r -t 0.515776 -s 1 -d 0 -p ack -e 500 -c 1 -i 12 -a 1 -x {3.0 0.0 4 ------- null}
+ -t 0.515776 -s 0 -d 1 -p tcp -e 1040 -c 1 -i 16 -a 1 -x {0.0 3.0 8 ------- null}
- -t 0.515776 -s 0 -d 1 -p tcp -e 1040 -c 1 -i 16 -a 1 -x {0.0 3.0 8 ------- null}
h -t 0.515776 -s 0 -d 1 -p tcp -e 1040 -c 1 -i 16 -a 1 -x {0.0 3.0 -1 ------- null}
+ -t 0.515776 -s 0 -d 1 -p tcp -e 1040 -c 1 -i 17 -a 1 -x {0.0 3.0 9 ------- null}
- -t 0.516608 -s 0 -d 1 -p tcp -e 1040 -c 1 -i 17 -a 1 -x {0.0 3.0 9 ------- null}
h -t 0.516608 -s 0 -d 1 -p tcp -e 1040 -c 1 -i 17 -a 1 -x {0.0 3.0 -1 ------- null}
r -t 0.521322666666667 -s 1 -d 0 -p ack -e 500 -c 1 -i 13 -a 1 -x {3.0 0.0 5 ------- null}
+ -t 0.521322666666667 -s 0 -d 1 -p tcp -e 1040 -c 1 -i 18 -a 1 -x {0.0 3.0 10 ------- null}
- -t 0.521322666666667 -s 0 -d 1 -p tcp -e 1040 -c 1 -i 18 -a 1 -x {0.0 3.0 10 ------- null}
h -t 0.521322666666667 -s 0 -d 1 -p tcp -e 1040 -c 1 -i 18 -a 1 -x {0.0 3.0 -1 ------- null}
+ -t 0.521322666666667 -s 0 -d 1 -p tcp -e 1040 -c 1 -i 19 -a 1 -x {0.0 3.0 11 ------- null}
- -t 0.522154666666667 -s 0 -d 1 -p tcp -e 1040 -c 1 -i 19 -a 1 -x {0.0 3.0 11 ------- null}
h -t 0.522154666666667 -s 0 -d 1 -p tcp -e 1040 -c 1 -i 19 -a 1 -x {0.0 3.0 -1 ------- null}
r -t 0.526869333333333 -s 1 -d 0 -p ack -e 500 -c 1 -i 14 -a 1 -x {3.0 0.0 6 ------- null}
+ -t 0.526869333333333 -s 0 -d 1 -p tcp -e 1040 -c 1 -i 20 -a 1 -x {0.0 3.0 12 ------- null}
- -t 0.526869333333333 -s 0 -d 1 -p tcp -e 1040 -c 1 -i 20 -a 1 -x {0.0 3.0 12 ------- null}
h -t 0.526869333333333 -s 0 -d 1 -p tcp -e 1040 -c 1 -i 20 -a 1 -x {0.0 3.0 -1 ------- null}
+ -t 0.526869333333333 -s 0 -d 1 -p tcp -e 1040 -c 1 -i 21 -a 1 -x {0.0 3.0 13 ------- null}
- -t 0.527701333333333 -s 0 -d 1 -p tcp -e 1040 -c 1 -i 21 -a 1 -x {0.0 3.0 13 ------- null}
h -t 0.527701333333333 -s 0 -d 1 -p tcp -e 1040 -c 1 -i 21 -a 1 -x {0.0 3.0 -1 ------- null}
r -t 0.532416 -s 1 -d 0 -p ack -e 500 -c 1 -i 15 -a 1 -x {3.0 0.0 7 ------- null}
+ -t 0.532416 -s 0 -d 1 -p tcp -e 1040 -c 1 -i 22 -a 1 -x {0.0 3.0 14 ------- null}
- -t 0.532416 -s 0 -d 1 -p tcp -e 1040 -c 1 -i 22 -a 1 -x {0.0 3.0 14 ------- null}
h -t 0.532416 -s 0 -d 1 -p tcp -e 1040 -c 1 -i 22 -a 1 -x {0.0 3.0 -1 ------- null}
+ -t 0.532416 -s 0 -d 1 -p tcp -e 1040 -c 1 -i 23 -a 1 -x {0.0 3.0 15 ------- null}
- -t 0.533248 -s 0 -d 1 -p tcp -e 1040 -c 1 -i 23 -a 1 -x {0.0 3.0 15 ------- null}
h -t 0.533248 -s 0 -d 1 -p tcp -e 1040 -c 1 -i 23 -a 1 -x {0.0 3.0 -1 ------- null}
r -t 0.536608 -s 0 -d 1 -p tcp -e 1040 -c 1 -i 16 -a 1 -x {0.0 3.0 8 ------- null}
+ -t 0.536608 -s 1 -d 2 -p tcp -e 1040 -c 1 -i 16 -a 1 -x {0.0 3.0 8 ------- null}
- -t 0.536608 -s 1 -d 2 -p tcp -e 1040 -c 1 -i 16 -a 1 -x {0.0 3.0 8 ------- null}
h -t 0.536608 -s 1 -d 2 -p tcp -e 1040 -c 1 -i 16 -a 1 -x {0.0 3.0 -1 ------- null}
r -t 0.53744 -s 0 -d 1 -p tcp -e 1040 -c 1 -i 17 -a 1 -x {0.0 3.0 9 ------- null}
+ -t 0.53744 -s 1 -d 2 -p tcp -e 1040 -c 1 -i 17 -a 1 -x {0.0 3.0 9 ------- null}
r -t 0.542154666666667 -s 0 -d 1 -p tcp -e 1040 -c 1 -i 18 -a 1 -x {0.0 3.0 10 ------- null}
+ -t 0.542154666666667 -s 1 -d 2 -p tcp -e 1040 -c 1 -i 18 -a 1 -x {0.0 3.0 10 ------- null}
- -t 0.542154666666667 -s 1 -d 2 -p tcp -e 1040 -c 1 -i 17 -a 1 -x {0.0 3.0 9 ------- null}
h -t 0.542154666666667 -s 1 -d 2 -p tcp -e 1040 -c 1 -i 17 -a 1 -x {0.0 3.0 -1 ------- null}
r -t 0.542986666666667 -s 0 -d 1 -p tcp -e 1040 -c 1 -i 19 -a 1 -x {0.0 3.0 11 ------- null}
+ -t 0.542986666666667 -s 1 -d 2 -p tcp -e 1040 -c 1 -i 19 -a 1 -x {0.0 3.0 11 ------- null}
r -t 0.547701333333333 -s 0 -d 1 -p tcp -e 1040 -c 1 -i 20 -a 1 -x {0.0 3.0 12 ------- null}
+ -t 0.547701333333333 -s 1 -d 2 -p tcp -e 1040 -c 1 -i 20 -a 1 -x {0.0 3.0 12 ------- null}
- -t 0.547701333333333 -s 1 -d 2 -p tcp -e 1040 -c 1 -i 18 -a 1 -x {0.0 3.0 10 ------- null}
h -t 0.547701333333333 -s 1 -d 2 -p tcp -e 1040 -c 1 -i 18 -a 1 -x {0.0 3.0 -1 ------- null}
r -t 0.548533333333333 -s 0 -d 1 -p tcp -e 1040 -c 1 -i 21 -a 1 -x {0.0 3.0 13 ------- null}
+ -t 0.548533333333333 -s 1 -d 2 -p tcp -e 1040 -c 1 -i 21 -a 1 -x {0.0 3.0 13 ------- null}
r -t 0.553248 -s 0 -d 1 -p tcp -e 1040 -c 1 -i 22 -a 1 -x {0.0 3.0 14 ------- null}
+ -t 0.553248 -s 1 -d 2 -p tcp -e 1040 -c 1 -i 22 -a 1 -x {0.0 3.0 14 ------- null}
- -t 0.553248 -s 1 -d 2 -p tcp -e 1040 -c 1 -i 19 -a 1 -x {0.0 3.0 11 ------- null}
h -t 0.553248 -s 1 -d 2 -p tcp -e 1040 -c 1 -i 19 -a 1 -x {0.0 3.0 -1 ------- null}
r -t 0.55408 -s 0 -d 1 -p tcp -e 1040 -c 1 -i 23 -a 1 -x {0.0 3.0 15 ------- null}
+ -t 0.55408 -s 1 -d 2 -p tcp -e 1040 -c 1 -i 23 -a 1 -x {0.0 3.0 15 ------- null}
- -t 0.558794666666667 -s 1 -d 2 -p tcp -e 1040 -c 1 -i 20 -a 1 -x {0.0 3.0 12 ------- null}
h -t 0.558794666666667 -s 1 -d 2 -p tcp -e 1040 -c 1 -i 20 -a 1 -x {0.0 3.0 -1 ------- null}
r -t 0.562154666666667 -s 1 -d 2 -p tcp -e 1040 -c 1 -i 16 -a 1 -x {0.0 3.0 8 ------- null}
+ -t 0.562154666666667 -s 2 -d 3 -p tcp -e 1040 -c 1 -i 16 -a 1 -x {0.0 3.0 8 ------- null}
- -t 0.562154666666667 -s 2 -d 3 -p tcp -e 1040 -c 1 -i 16 -a 1 -x {0.0 3.0 8 ------- null}
h -t 0.562154666666667 -s 2 -d 3 -p tcp -e 1040 -c 1 -i 16 -a 1 -x {0.0 3.0 -1 ------- null}
- -t 0.564341333333334 -s 1 -d 2 -p tcp -e 1040 -c 1 -i 21 -a 1 -x {0.0 3.0 13 ------- null}
h -t 0.564341333333334 -s 1 -d 2 -p tcp -e 1040 -c 1 -i 21 -a 1 -x {0.0 3.0 -1 ------- null}
r -t 0.567701333333334 -s 1 -d 2 -p tcp -e 1040 -c 1 -i 17 -a 1 -x {0.0 3.0 9 ------- null}
+ -t 0.567701333333334 -s 2 -d 3 -p tcp -e 1040 -c 1 -i 17 -a 1 -x {0.0 3.0 9 ------- null}
- -t 0.567701333333334 -s 2 -d 3 -p tcp -e 1040 -c 1 -i 17 -a 1 -x {0.0 3.0 9 ------- null}
h -t 0.567701333333334 -s 2 -d 3 -p tcp -e 1040 -c 1 -i 17 -a 1 -x {0.0 3.0 -1 ------- null}
- -t 0.569888 -s 1 -d 2 -p tcp -e 1040 -c 1 -i 22 -a 1 -x {0.0 3.0 14 ------- null}
h -t 0.569888 -s 1 -d 2 -p tcp -e 1040 -c 1 -i 22 -a 1 -x {0.0 3.0 -1 ------- null}
r -t 0.573248 -s 1 -d 2 -p tcp -e 1040 -c 1 -i 18 -a 1 -x {0.0 3.0 10 ------- null}
+ -t 0.573248 -s 2 -d 3 -p tcp -e 1040 -c 1 -i 18 -a 1 -x {0.0 3.0 10 ------- null}
- -t 0.573248 -s 2 -d 3 -p tcp -e 1040 -c 1 -i 18 -a 1 -x {0.0 3.0 10 ------- null}
h -t 0.573248 -s 2 -d 3 -p tcp -e 1040 -c 1 -i 18 -a 1 -x {0.0 3.0 -1 ------- null}
- -t 0.575434666666667 -s 1 -d 2 -p tcp -e 1040 -c 1 -i 23 -a 1 -x {0.0 3.0 15 ------- null}
h -t 0.575434666666667 -s 1 -d 2 -p tcp -e 1040 -c 1 -i 23 -a 1 -x {0.0 3.0 -1 ------- null}
r -t 0.578794666666667 -s 1 -d 2 -p tcp -e 1040 -c 1 -i 19 -a 1 -x {0.0 3.0 11 ------- null}
+ -t 0.578794666666667 -s 2 -d 3 -p tcp -e 1040 -c 1 -i 19 -a 1 -x {0.0 3.0 11 ------- null}
- -t 0.578794666666667 -s 2 -d 3 -p tcp -e 1040 -c 1 -i 19 -a 1 -x {0.0 3.0 11 ------- null}
h -t 0.578794666666667 -s 2 -d 3 -p tcp -e 1040 -c 1 -i 19 -a 1 -x {0.0 3.0 -1 ------- null}
r -t 0.582986666666667 -s 2 -d 3 -p tcp -e 1040 -c 1 -i 16 -a 1 -x {0.0 3.0 8 ------- null}
+ -t 0.582986666666667 -s 3 -d 2 -p ack -e 500 -c 1 -i 24 -a 1 -x {3.0 0.0 8 ------- null}
- -t 0.582986666666667 -s 3 -d 2 -p ack -e 500 -c 1 -i 24 -a 1 -x {3.0 0.0 8 ------- null}
h -t 0.582986666666667 -s 3 -d 2 -p ack -e 500 -c 1 -i 24 -a 1 -x {3.0 0.0 -1 ------- null}
r -t 0.584341333333334 -s 1 -d 2 -p tcp -e 1040 -c 1 -i 20 -a 1 -x {0.0 3.0 12 ------- null}
+ -t 0.584341333333334 -s 2 -d 3 -p tcp -e 1040 -c 1 -i 20 -a 1 -x {0.0 3.0 12 ------- null}
- -t 0.584341333333334 -s 2 -d 3 -p tcp -e 1040 -c 1 -i 20 -a 1 -x {0.0 3.0 12 ------- null}
h -t 0.584341333333334 -s 2 -d 3 -p tcp -e 1040 -c 1 -i 20 -a 1 -x {0.0 3.0 -1 ------- null}
r -t 0.588533333333333 -s 2 -d 3 -p tcp -e 1040 -c 1 -i 17 -a 1 -x {0.0 3.0 9 ------- null}
+ -t 0.588533333333333 -s 3 -d 2 -p ack -e 500 -c 1 -i 25 -a 1 -x {3.0 0.0 9 ------- null}
- -t 0.588533333333333 -s 3 -d 2 -p ack -e 500 -c 1 -i 25 -a 1 -x {3.0 0.0 9 ------- null}
h -t 0.588533333333333 -s 3 -d 2 -p ack -e 500 -c 1 -i 25 -a 1 -x {3.0 0.0 -1 ------- null}
r -t 0.589888 -s 1 -d 2 -p tcp -e 1040 -c 1 -i 21 -a 1 -x {0.0 3.0 13 ------- null}
+ -t 0.589888 -s 2 -d 3 -p tcp -e 1040 -c 1 -i 21 -a 1 -x {0.0 3.0 13 ------- null}
- -t 0.589888 -s 2 -d 3 -p tcp -e 1040 -c 1 -i 21 -a 1 -x {0.0 3.0 13 ------- null}
h -t 0.589888 -s 2 -d 3 -p tcp -e 1040 -c 1 -i 21 -a 1 -x {0.0 3.0 -1 ------- null}
r -t 0.59408 -s 2 -d 3 -p tcp -e 1040 -c 1 -i 18 -a 1 -x {0.0 3.0 10 ------- null}
+ -t 0.59408 -s 3 -d 2 -p ack -e 500 -c 1 -i 26 -a 1 -x {3.0 0.0 10 ------- null}
- -t 0.59408 -s 3 -d 2 -p ack -e 500 -c 1 -i 26 -a 1 -x {3.0 0.0 10 ------- null}
h -t 0.59408 -s 3 -d 2 -p ack -e 500 -c 1 -i 26 -a 1 -x {3.0 0.0 -1 ------- null}
r -t 0.595434666666667 -s 1 -d 2 -p tcp -e 1040 -c 1 -i 22 -a 1 -x {0.0 3.0 14 ------- null}
+ -t 0.595434666666667 -s 2 -d 3 -p tcp -e 1040 -c 1 -i 22 -a 1 -x {0.0 3.0 14 ------- null}
- -t 0.595434666666667 -s 2 -d 3 -p tcp -e 1040 -c 1 -i 22 -a 1 -x {0.0 3.0 14 ------- null}
h -t 0.595434666666667 -s 2 -d 3 -p tcp -e 1040 -c 1 -i 22 -a 1 -x {0.0 3.0 -1 ------- null}
r -t 0.599626666666667 -s 2 -d 3 -p tcp -e 1040 -c 1 -i 19 -a 1 -x {0.0 3.0 11 ------- null}
+ -t 0.599626666666667 -s 3 -d 2 -p ack -e 500 -c 1 -i 27 -a 1 -x {3.0 0.0 11 ------- null}
- -t 0.599626666666667 -s 3 -d 2 -p ack -e 500 -c 1 -i 27 -a 1 -x {3.0 0.0 11 ------- null}
h -t 0.599626666666667 -s 3 -d 2 -p ack -e 500 -c 1 -i 27 -a 1 -x {3.0 0.0 -1 ------- null}
r -t 0.600981333333334 -s 1 -d 2 -p tcp -e 1040 -c 1 -i 23 -a 1 -x {0.0 3.0 15 ------- null}
+ -t 0.600981333333334 -s 2 -d 3 -p tcp -e 1040 -c 1 -i 23 -a 1 -x {0.0 3.0 15 ------- null}
- -t 0.600981333333334 -s 2 -d 3 -p tcp -e 1040 -c 1 -i 23 -a 1 -x {0.0 3.0 15 ------- null}
h -t 0.600981333333334 -s 2 -d 3 -p tcp -e 1040 -c 1 -i 23 -a 1 -x {0.0 3.0 -1 ------- null}
r -t 0.603386666666667 -s 3 -d 2 -p ack -e 500 -c 1 -i 24 -a 1 -x {3.0 0.0 8 ------- null}
+ -t 0.603386666666667 -s 2 -d 1 -p ack -e 500 -c 1 -i 24 -a 1 -x {3.0 0.0 8 ------- null}
- -t 0.603386666666667 -s 2 -d 1 -p ack -e 500 -c 1 -i 24 -a 1 -x {3.0 0.0 8 ------- null}
h -t 0.603386666666667 -s 2 -d 1 -p ack -e 500 -c 1 -i 24 -a 1 -x {3.0 0.0 -1 ------- null}
r -t 0.605173333333334 -s 2 -d 3 -p tcp -e 1040 -c 1 -i 20 -a 1 -x {0.0 3.0 12 ------- null}
+ -t 0.605173333333334 -s 3 -d 2 -p ack -e 500 -c 1 -i 28 -a 1 -x {3.0 0.0 12 ------- null}
- -t 0.605173333333334 -s 3 -d 2 -p ack -e 500 -c 1 -i 28 -a 1 -x {3.0 0.0 12 ------- null}
h -t 0.605173333333334 -s 3 -d 2 -p ack -e 500 -c 1 -i 28 -a 1 -x {3.0 0.0 -1 ------- null}
r -t 0.608933333333333 -s 3 -d 2 -p ack -e 500 -c 1 -i 25 -a 1 -x {3.0 0.0 9 ------- null}
+ -t 0.608933333333333 -s 2 -d 1 -p ack -e 500 -c 1 -i 25 -a 1 -x {3.0 0.0 9 ------- null}
- -t 0.608933333333333 -s 2 -d 1 -p ack -e 500 -c 1 -i 25 -a 1 -x {3.0 0.0 9 ------- null}
h -t 0.608933333333333 -s 2 -d 1 -p ack -e 500 -c 1 -i 25 -a 1 -x {3.0 0.0 -1 ------- null}
r -t 0.61072 -s 2 -d 3 -p tcp -e 1040 -c 1 -i 21 -a 1 -x {0.0 3.0 13 ------- null}
+ -t 0.61072 -s 3 -d 2 -p ack -e 500 -c 1 -i 29 -a 1 -x {3.0 0.0 13 ------- null}
- -t 0.61072 -s 3 -d 2 -p ack -e 500 -c 1 -i 29 -a 1 -x {3.0 0.0 13 ------- null}
h -t 0.61072 -s 3 -d 2 -p ack -e 500 -c 1 -i 29 -a 1 -x {3.0 0.0 -1 ------- null}
r -t 0.61448 -s 3 -d 2 -p ack -e 500 -c 1 -i 26 -a 1 -x {3.0 0.0 10 ------- null}
+ -t 0.61448 -s 2 -d 1 -p ack -e 500 -c 1 -i 26 -a 1 -x {3.0 0.0 10 ------- null}
- -t 0.61448 -s 2 -d 1 -p ack -e 500 -c 1 -i 26 -a 1 -x {3.0 0.0 10 ------- null}
h -t 0.61448 -s 2 -d 1 -p ack -e 500 -c 1 -i 26 -a 1 -x {3.0 0.0 -1 ------- null}
r -t 0.616266666666667 -s 2 -d 3 -p tcp -e 1040 -c 1 -i 22 -a 1 -x {0.0 3.0 14 ------- null}
+ -t 0.616266666666667 -s 3 -d 2 -p ack -e 500 -c 1 -i 30 -a 1 -x {3.0 0.0 14 ------- null}
- -t 0.616266666666667 -s 3 -d 2 -p ack -e 500 -c 1 -i 30 -a 1 -x {3.0 0.0 14 ------- null}
h -t 0.616266666666667 -s 3 -d 2 -p ack -e 500 -c 1 -i 30 -a 1 -x {3.0 0.0 -1 ------- null}
r -t 0.620026666666667 -s 3 -d 2 -p ack -e 500 -c 1 -i 27 -a 1 -x {3.0 0.0 11 ------- null}
+ -t 0.620026666666667 -s 2 -d 1 -p ack -e 500 -c 1 -i 27 -a 1 -x {3.0 0.0 11 ------- null}
- -t 0.620026666666667 -s 2 -d 1 -p ack -e 500 -c 1 -i 27 -a 1 -x {3.0 0.0 11 ------- null}
h -t 0.620026666666667 -s 2 -d 1 -p ack -e 500 -c 1 -i 27 -a 1 -x {3.0 0.0 -1 ------- null}