+ 0 1 2 cbr 210 ------- 6 1.0 2.0 0 0
- 0 1 2 cbr 210 ------- 6 1.0 2.0 0 0
+ 0.00021 1 2 cbr 210 ------- 6 1.0 2.0 1 1
+ 0.00042 1 2 cbr 210 ------- 6 1.0 2.0 2 2
+ 0.00063 1 2 cbr 210 ------- 6 1.0 2.0 3 3
+ 0.00084 1 2 cbr 210 ------- 6 1.0 2.0 4 4
+ 0.00105 1 2 cbr 210 ------- 6 1.0 2.0 5 5
+ 0.00126 1 2 cbr 210 ------- 6 1.0 2.0 6 6
+ 0.00147 1 2 cbr 210 ------- 6 1.0 2.0 7 7
- 0.00168 1 2 cbr 210 ------- 6 1.0 2.0 1 1
+ 0.00168 1 2 cbr 210 ------- 6 1.0 2.0 8 8
+ 0.00189 1 2 cbr 210 ------- 6 1.0 2.0 9 9
+ 0.0021 1 2 cbr 210 ------- 6 1.0 2.0 10 10
+ 0.00231 1 2 cbr 210 ------- 6 1.0 2.0 11 11
+ 0.00252 1 2 cbr 210 ------- 6 1.0 2.0 12 12
+ 0.00273 1 2 cbr 210 ------- 6 1.0 2.0 13 13
+ 0.00294 1 2 cbr 210 ------- 6 1.0 2.0 14 14
+ 0.00315 1 2 cbr 210 ------- 6 1.0 2.0 15 15
- 0.00336 1 2 cbr 210 ------- 6 1.0 2.0 2 2
+ 0.00336 1 2 cbr 210 ------- 6 1.0 2.0 16 16
+ 0.00357 1 2 cbr 210 ------- 6 1.0 2.0 17 17
+ 0.00378 1 2 cbr 210 ------- 6 1.0 2.0 18 18
+ 0.00399 1 2 cbr 210 ------- 6 1.0 2.0 19 19
+ 0.0042 1 2 cbr 210 ------- 6 1.0 2.0 20 20
+ 0.00441 1 2 cbr 210 ------- 6 1.0 2.0 21 21
+ 0.00462 1 2 cbr 210 ------- 6 1.0 2.0 22 22
d 0.00462 1 2 cbr 210 ------- 6 1.0 2.0 22 22
+ 0.00483 1 2 cbr 210 ------- 6 1.0 2.0 23 23
d 0.00483 1 2 cbr 210 ------- 6 1.0 2.0 23 23
- 0.00504 1 2 cbr 210 ------- 6 1.0 2.0 3 3
+ 0.00504 1 2 cbr 210 ------- 6 1.0 2.0 24 24
+ 0.00525 1 2 cbr 210 ------- 6 1.0 2.0 25 25
d 0.00525 1 2 cbr 210 ------- 6 1.0 2.0 25 25
+ 0.00546 1 2 cbr 210 ------- 6 1.0 2.0 26 26
d 0.00546 1 2 cbr 210 ------- 6 1.0 2.0 26 26
+ 0.00567 1 2 cbr 210 ------- 6 1.0 2.0 27 27
d 0.00567 1 2 cbr 210 ------- 6 1.0 2.0 27 27
+ 0.00588 1 2 cbr 210 ------- 6 1.0 2.0 28 28
d 0.00588 1 2 cbr 210 ------- 6 1.0 2.0 28 28
+ 0.00609 1 2 cbr 210 ------- 6 1.0 2.0 29 29
d 0.00609 1 2 cbr 210 ------- 6 1.0 2.0 29 29
+ 0.0063 1 2 cbr 210 ------- 6 1.0 2.0 30 30
d 0.0063 1 2 cbr 210 ------- 6 1.0 2.0 30 30
+ 0.00651 1 2 cbr 210 ------- 6 1.0 2.0 31 31
d 0.00651 1 2 cbr 210 ------- 6 1.0 2.0 31 31
- 0.00672 1 2 cbr 210 ------- 6 1.0 2.0 4 4
+ 0.00672 1 2 cbr 210 ------- 6 1.0 2.0 32 32
+ 0.00693 1 2 cbr 210 ------- 6 1.0 2.0 33 33
d 0.00693 1 2 cbr 210 ------- 6 1.0 2.0 33 33
+ 0.00714 1 2 cbr 210 ------- 6 1.0 2.0 34 34
d 0.00714 1 2 cbr 210 ------- 6 1.0 2.0 34 34
+ 0.00735 1 2 cbr 210 ------- 6 1.0 2.0 35 35
d 0.00735 1 2 cbr 210 ------- 6 1.0 2.0 35 35
+ 0.00756 1 2 cbr 210 ------- 6 1.0 2.0 36 36
d 0.00756 1 2 cbr 210 ------- 6 1.0 2.0 36 36
+ 0.00777 1 2 cbr 210 ------- 6 1.0 2.0 37 37
d 0.00777 1 2 cbr 210 ------- 6 1.0 2.0 37 37
+ 0.00798 1 2 cbr 210 ------- 6 1.0 2.0 38 38
d 0.00798 1 2 cbr 210 ------- 6 1.0 2.0 38 38
+ 0.00819 1 2 cbr 210 ------- 6 1.0 2.0 39 39
d 0.00819 1 2 cbr 210 ------- 6 1.0 2.0 39 39
- 0.0084 1 2 cbr 210 ------- 6 1.0 2.0 5 5
+ 0.0084 1 2 cbr 210 ------- 6 1.0 2.0 40 40
+ 0.00861 1 2 cbr 210 ------- 6 1.0 2.0 41 41
d 0.00861 1 2 cbr 210 ------- 6 1.0 2.0 41 41
+ 0.00882 1 2 cbr 210 ------- 6 1.0 2.0 42 42
d 0.00882 1 2 cbr 210 ------- 6 1.0 2.0 42 42
+ 0.00903 1 2 cbr 210 ------- 6 1.0 2.0 43 43
d 0.00903 1 2 cbr 210 ------- 6 1.0 2.0 43 43
+ 0.00924 1 2 cbr 210 ------- 6 1.0 2.0 44 44
d 0.00924 1 2 cbr 210 ------- 6 1.0 2.0 44 44
+ 0.00945 1 2 cbr 210 ------- 6 1.0 2.0 45 45
d 0.00945 1 2 cbr 210 ------- 6 1.0 2.0 45 45
+ 0.00966 1 2 cbr 210 ------- 6 1.0 2.0 46 46
d 0.00966 1 2 cbr 210 ------- 6 1.0 2.0 46 46
+ 0.00987 1 2 cbr 210 ------- 6 1.0 2.0 47 47
d 0.00987 1 2 cbr 210 ------- 6 1.0 2.0 47 47
- 0.01008 1 2 cbr 210 ------- 6 1.0 2.0 6 6
+ 0.01008 1 2 cbr 210 ------- 6 1.0 2.0 48 48
+ 0.01029 1 2 cbr 210 ------- 6 1.0 2.0 49 49
d 0.01029 1 2 cbr 210 ------- 6 1.0 2.0 49 49
+ 0.0105 1 2 cbr 210 ------- 6 1.0 2.0 50 50
d 0.0105 1 2 cbr 210 ------- 6 1.0 2.0 50 50
+ 0.01071 1 2 cbr 210 ------- 6 1.0 2.0 51 51
d 0.01071 1 2 cbr 210 ------- 6 1.0 2.0 51 51
+ 0.01092 1 2 cbr 210 ------- 6 1.0 2.0 52 52
d 0.01092 1 2 cbr 210 ------- 6 1.0 2.0 52 52
+ 0.01113 1 2 cbr 210 ------- 6 1.0 2.0 53 53
d 0.01113 1 2 cbr 210 ------- 6 1.0 2.0 53 53
+ 0.01134 1 2 cbr 210 ------- 6 1.0 2.0 54 54
d 0.01134 1 2 cbr 210 ------- 6 1.0 2.0 54 54
+ 0.01155 1 2 cbr 210 ------- 6 1.0 2.0 55 55
d 0.01155 1 2 cbr 210 ------- 6 1.0 2.0 55 55
- 0.01176 1 2 cbr 210 ------- 6 1.0 2.0 7 7
+ 0.01176 1 2 cbr 210 ------- 6 1.0 2.0 56 56
+ 0.01197 1 2 cbr 210 ------- 6 1.0 2.0 57 57
d 0.01197 1 2 cbr 210 ------- 6 1.0 2.0 57 57
+ 0.01218 1 2 cbr 210 ------- 6 1.0 2.0 58 58
d 0.01218 1 2 cbr 210 ------- 6 1.0 2.0 58 58
+ 0.01239 1 2 cbr 210 ------- 6 1.0 2.0 59 59
d 0.01239 1 2 cbr 210 ------- 6 1.0 2.0 59 59
+ 0.0126 1 2 cbr 210 ------- 6 1.0 2.0 60 60
d 0.0126 1 2 cbr 210 ------- 6 1.0 2.0 60 60
+ 0.01281 1 2 cbr 210 ------- 6 1.0 2.0 61 61
d 0.01281 1 2 cbr 210 ------- 6 1.0 2.0 61 61
+ 0.01302 1 2 cbr 210 ------- 6 1.0 2.0 62 62
d 0.01302 1 2 cbr 210 ------- 6 1.0 2.0 62 62
+ 0.01323 1 2 cbr 210 ------- 6 1.0 2.0 63 63
d 0.01323 1 2 cbr 210 ------- 6 1.0 2.0 63 63
- 0.01344 1 2 cbr 210 ------- 6 1.0 2.0 8 8
+ 0.01344 1 2 cbr 210 ------- 6 1.0 2.0 64 64
+ 0.01365 1 2 cbr 210 ------- 6 1.0 2.0 65 65
d 0.01365 1 2 cbr 210 ------- 6 1.0 2.0 65 65
+ 0.01386 1 2 cbr 210 ------- 6 1.0 2.0 66 66
d 0.01386 1 2 cbr 210 ------- 6 1.0 2.0 66 66
+ 0.01407 1 2 cbr 210 ------- 6 1.0 2.0 67 67
d 0.01407 1 2 cbr 210 ------- 6 1.0 2.0 67 67
+ 0.01428 1 2 cbr 210 ------- 6 1.0 2.0 68 68
d 0.01428 1 2 cbr 210 ------- 6 1.0 2.0 68 68
+ 0.01449 1 2 cbr 210 ------- 6 1.0 2.0 69 69
d 0.01449 1 2 cbr 210 ------- 6 1.0 2.0 69 69
+ 0.0147 1 2 cbr 210 ------- 6 1.0 2.0 70 70
d 0.0147 1 2 cbr 210 ------- 6 1.0 2.0 70 70
+ 0.01491 1 2 cbr 210 ------- 6 1.0 2.0 71 71
d 0.01491 1 2 cbr 210 ------- 6 1.0 2.0 71 71
- 0.01512 1 2 cbr 210 ------- 6 1.0 2.0 9 9
+ 0.01512 1 2 cbr 210 ------- 6 1.0 2.0 72 72
+ 0.01533 1 2 cbr 210 ------- 6 1.0 2.0 73 73
d 0.01533 1 2 cbr 210 ------- 6 1.0 2.0 73 73
+ 0.01554 1 2 cbr 210 ------- 6 1.0 2.0 74 74
d 0.01554 1 2 cbr 210 ------- 6 1.0 2.0 74 74
+ 0.01575 1 2 cbr 210 ------- 6 1.0 2.0 75 75
d 0.01575 1 2 cbr 210 ------- 6 1.0 2.0 75 75
+ 0.01596 1 2 cbr 210 ------- 6 1.0 2.0 76 76
d 0.01596 1 2 cbr 210 ------- 6 1.0 2.0 76 76
+ 0.01617 1 2 cbr 210 ------- 6 1.0 2.0 77 77
d 0.01617 1 2 cbr 210 ------- 6 1.0 2.0 77 77
+ 0.01638 1 2 cbr 210 ------- 6 1.0 2.0 78 78
d 0.01638 1 2 cbr 210 ------- 6 1.0 2.0 78 78
+ 0.01659 1 2 cbr 210 ------- 6 1.0 2.0 79 79
d 0.01659 1 2 cbr 210 ------- 6 1.0 2.0 79 79
+ 0.0168 1 2 cbr 210 ------- 6 1.0 2.0 80 80
d 0.0168 1 2 cbr 210 ------- 6 1.0 2.0 80 80
- 0.0168 1 2 cbr 210 ------- 6 1.0 2.0 10 10
+ 0.01701 1 2 cbr 210 ------- 6 1.0 2.0 81 81
+ 0.01722 1 2 cbr 210 ------- 6 1.0 2.0 82 82
d 0.01722 1 2 cbr 210 ------- 6 1.0 2.0 82 82
+ 0.01743 1 2 cbr 210 ------- 6 1.0 2.0 83 83
d 0.01743 1 2 cbr 210 ------- 6 1.0 2.0 83 83
+ 0.01764 1 2 cbr 210 ------- 6 1.0 2.0 84 84
d 0.01764 1 2 cbr 210 ------- 6 1.0 2.0 84 84
+ 0.01785 1 2 cbr 210 ------- 6 1.0 2.0 85 85
d 0.01785 1 2 cbr 210 ------- 6 1.0 2.0 85 85
+ 0.01806 1 2 cbr 210 ------- 6 1.0 2.0 86 86
d 0.01806 1 2 cbr 210 ------- 6 1.0 2.0 86 86
+ 0.01827 1 2 cbr 210 ------- 6 1.0 2.0 87 87
d 0.01827 1 2 cbr 210 ------- 6 1.0 2.0 87 87
+ 0.01848 1 2 cbr 210 ------- 6 1.0 2.0 88 88
d 0.01848 1 2 cbr 210 ------- 6 1.0 2.0 88 88
- 0.01848 1 2 cbr 210 ------- 6 1.0 2.0 11 11
+ 0.01869 1 2 cbr 210 ------- 6 1.0 2.0 89 89
+ 0.0189 1 2 cbr 210 ------- 6 1.0 2.0 90 90
d 0.0189 1 2 cbr 210 ------- 6 1.0 2.0 90 90
+ 0.01911 1 2 cbr 210 ------- 6 1.0 2.0 91 91
d 0.01911 1 2 cbr 210 ------- 6 1.0 2.0 91 91
+ 0.01932 1 2 cbr 210 ------- 6 1.0 2.0 92 92
d 0.01932 1 2 cbr 210 ------- 6 1.0 2.0 92 92
+ 0.01953 1 2 cbr 210 ------- 6 1.0 2.0 93 93
d 0.01953 1 2 cbr 210 ------- 6 1.0 2.0 93 93
+ 0.01974 1 2 cbr 210 ------- 6 1.0 2.0 94 94
d 0.01974 1 2 cbr 210 ------- 6 1.0 2.0 94 94
+ 0.01995 1 2 cbr 210 ------- 6 1.0 2.0 95 95
d 0.01995 1 2 cbr 210 ------- 6 1.0 2.0 95 95
+ 0.02016 1 2 cbr 210 ------- 6 1.0 2.0 96 96
d 0.02016 1 2 cbr 210 ------- 6 1.0 2.0 96 96
- 0.02016 1 2 cbr 210 ------- 6 1.0 2.0 12 12
+ 0.02037 1 2 cbr 210 ------- 6 1.0 2.0 97 97
+ 0.02058 1 2 cbr 210 ------- 6 1.0 2.0 98 98
d 0.02058 1 2 cbr 210 ------- 6 1.0 2.0 98 98
+ 0.02079 1 2 cbr 210 ------- 6 1.0 2.0 99 99
d 0.02079 1 2 cbr 210 ------- 6 1.0 2.0 99 99
+ 0.021 1 2 cbr 210 ------- 6 1.0 2.0 100 100
d 0.021 1 2 cbr 210 ------- 6 1.0 2.0 100 100
+ 0.02121 1 2 cbr 210 ------- 6 1.0 2.0 101 101
d 0.02121 1 2 cbr 210 ------- 6 1.0 2.0 101 101
+ 0.02142 1 2 cbr 210 ------- 6 1.0 2.0 102 102
d 0.02142 1 2 cbr 210 ------- 6 1.0 2.0 102 102
+ 0.02163 1 2 cbr 210 ------- 6 1.0 2.0 103 103
d 0.02163 1 2 cbr 210 ------- 6 1.0 2.0 103 103
r 0.02168 1 2 cbr 210 ------- 6 1.0 2.0 0 0
+ 0.02184 1 2 cbr 210 ------- 6 1.0 2.0 104 104
d 0.02184 1 2 cbr 210 ------- 6 1.0 2.0 104 104
- 0.02184 1 2 cbr 210 ------- 6 1.0 2.0 13 13
+ 0.02205 1 2 cbr 210 ------- 6 1.0 2.0 105 105
+ 0.02226 1 2 cbr 210 ------- 6 1.0 2.0 106 106
d 0.02226 1 2 cbr 210 ------- 6 1.0 2.0 106 106
+ 0.02247 1 2 cbr 210 ------- 6 1.0 2.0 107 107
d 0.02247 1 2 cbr 210 ------- 6 1.0 2.0 107 107
+ 0.02268 1 2 cbr 210 ------- 6 1.0 2.0 108 108
d 0.02268 1 2 cbr 210 ------- 6 1.0 2.0 108 108
+ 0.02289 1 2 cbr 210 ------- 6 1.0 2.0 109 109
d 0.02289 1 2 cbr 210 ------- 6 1.0 2.0 109 109
+ 0.0231 1 2 cbr 210 ------- 6 1.0 2.0 110 110
d 0.0231 1 2 cbr 210 ------- 6 1.0 2.0 110 110
+ 0.02331 1 2 cbr 210 ------- 6 1.0 2.0 111 111
d 0.02331 1 2 cbr 210 ------- 6 1.0 2.0 111 111
r 0.02336 1 2 cbr 210 ------- 6 1.0 2.0 1 1
+ 0.02352 1 2 cbr 210 ------- 6 1.0 2.0 112 112
d 0.02352 1 2 cbr 210 ------- 6 1.0 2.0 112 112
- 0.02352 1 2 cbr 210 ------- 6 1.0 2.0 14 14
+ 0.02373 1 2 cbr 210 ------- 6 1.0 2.0 113 113
+ 0.02394 1 2 cbr 210 ------- 6 1.0 2.0 114 114
d 0.02394 1 2 cbr 210 ------- 6 1.0 2.0 114 114
+ 0.02415 1 2 cbr 210 ------- 6 1.0 2.0 115 115
d 0.02415 1 2 cbr 210 ------- 6 1.0 2.0 115 115
+ 0.02436 1 2 cbr 210 ------- 6 1.0 2.0 116 116
d 0.02436 1 2 cbr 210 ------- 6 1.0 2.0 116 116
+ 0.02457 1 2 cbr 210 ------- 6 1.0 2.0 117 117
d 0.02457 1 2 cbr 210 ------- 6 1.0 2.0 117 117
+ 0.02478 1 2 cbr 210 ------- 6 1.0 2.0 118 118
d 0.02478 1 2 cbr 210 ------- 6 1.0 2.0 118 118
+ 0.02499 1 2 cbr 210 ------- 6 1.0 2.0 119 119
d 0.02499 1 2 cbr 210 ------- 6 1.0 2.0 119 119
r 0.02504 1 2 cbr 210 ------- 6 1.0 2.0 2 2
+ 0.0252 1 2 cbr 210 ------- 6 1.0 2.0 120 120
d 0.0252 1 2 cbr 210 ------- 6 1.0 2.0 120 120
- 0.0252 1 2 cbr 210 ------- 6 1.0 2.0 15 15
+ 0.02541 1 2 cbr 210 ------- 6 1.0 2.0 121 121
+ 0.02562 1 2 cbr 210 ------- 6 1.0 2.0 122 122
d 0.02562 1 2 cbr 210 ------- 6 1.0 2.0 122 122
+ 0.02583 1 2 cbr 210 ------- 6 1.0 2.0 123 123
d 0.02583 1 2 cbr 210 ------- 6 1.0 2.0 123 123
+ 0.02604 1 2 cbr 210 ------- 6 1.0 2.0 124 124
d 0.02604 1 2 cbr 210 ------- 6 1.0 2.0 124 124
+ 0.02625 1 2 cbr 210 ------- 6 1.0 2.0 125 125
d 0.02625 1 2 cbr 210 ------- 6 1.0 2.0 125 125
+ 0.02646 1 2 cbr 210 ------- 6 1.0 2.0 126 126
d 0.02646 1 2 cbr 210 ------- 6 1.0 2.0 126 126
+ 0.02667 1 2 cbr 210 ------- 6 1.0 2.0 127 127
d 0.02667 1 2 cbr 210 ------- 6 1.0 2.0 127 127
r 0.02672 1 2 cbr 210 ------- 6 1.0 2.0 3 3
+ 0.02688 1 2 cbr 210 ------- 6 1.0 2.0 128 128
d 0.02688 1 2 cbr 210 ------- 6 1.0 2.0 128 128
- 0.02688 1 2 cbr 210 ------- 6 1.0 2.0 16 16
+ 0.02709 1 2 cbr 210 ------- 6 1.0 2.0 129 129
+ 0.0273 1 2 cbr 210 ------- 6 1.0 2.0 130 130
d 0.0273 1 2 cbr 210 ------- 6 1.0 2.0 130 130
+ 0.02751 1 2 cbr 210 ------- 6 1.0 2.0 131 131
d 0.02751 1 2 cbr 210 ------- 6 1.0 2.0 131 131
+ 0.02772 1 2 cbr 210 ------- 6 1.0 2.0 132 132
d 0.02772 1 2 cbr 210 ------- 6 1.0 2.0 132 132
+ 0.02793 1 2 cbr 210 ------- 6 1.0 2.0 133 133
d 0.02793 1 2 cbr 210 ------- 6 1.0 2.0 133 133
+ 0.02814 1 2 cbr 210 ------- 6 1.0 2.0 134 134
d 0.02814 1 2 cbr 210 ------- 6 1.0 2.0 134 134
+ 0.02835 1 2 cbr 210 ------- 6 1.0 2.0 135 135
d 0.02835 1 2 cbr 210 ------- 6 1.0 2.0 135 135
r 0.0284 1 2 cbr 210 ------- 6 1.0 2.0 4 4
+ 0.02856 1 2 cbr 210 ------- 6 1.0 2.0 136 136
d 0.02856 1 2 cbr 210 ------- 6 1.0 2.0 136 136
- 0.02856 1 2 cbr 210 ------- 6 1.0 2.0 17 17
+ 0.02877 1 2 cbr 210 ------- 6 1.0 2.0 137 137
+ 0.02898 1 2 cbr 210 ------- 6 1.0 2.0 138 138
d 0.02898 1 2 cbr 210 ------- 6 1.0 2.0 138 138
+ 0.02919 1 2 cbr 210 ------- 6 1.0 2.0 139 139
d 0.02919 1 2 cbr 210 ------- 6 1.0 2.0 139 139
+ 0.0294 1 2 cbr 210 ------- 6 1.0 2.0 140 140
d 0.0294 1 2 cbr 210 ------- 6 1.0 2.0 140 140
+ 0.02961 1 2 cbr 210 ------- 6 1.0 2.0 141 141
d 0.02961 1 2 cbr 210 ------- 6 1.0 2.0 141 141
+ 0.02982 1 2 cbr 210 ------- 6 1.0 2.0 142 142
d 0.02982 1 2 cbr 210 ------- 6 1.0 2.0 142 142
+ 0.03003 1 2 cbr 210 ------- 6 1.0 2.0 143 143
d 0.03003 1 2 cbr 210 ------- 6 1.0 2.0 143 143
r 0.03008 1 2 cbr 210 ------- 6 1.0 2.0 5 5
+ 0.03024 1 2 cbr 210 ------- 6 1.0 2.0 144 144
d 0.03024 1 2 cbr 210 ------- 6 1.0 2.0 144 144
- 0.03024 1 2 cbr 210 ------- 6 1.0 2.0 18 18
+ 0.03045 1 2 cbr 210 ------- 6 1.0 2.0 145 145
+ 0.03066 1 2 cbr 210 ------- 6 1.0 2.0 146 146
d 0.03066 1 2 cbr 210 ------- 6 1.0 2.0 146 146
+ 0.03087 1 2 cbr 210 ------- 6 1.0 2.0 147 147
d 0.03087 1 2 cbr 210 ------- 6 1.0 2.0 147 147
+ 0.03108 1 2 cbr 210 ------- 6 1.0 2.0 148 148
d 0.03108 1 2 cbr 210 ------- 6 1.0 2.0 148 148
+ 0.03129 1 2 cbr 210 ------- 6 1.0 2.0 149 149
d 0.03129 1 2 cbr 210 ------- 6 1.0 2.0 149 149
+ 0.0315 1 2 cbr 210 ------- 6 1.0 2.0 150 150
d 0.0315 1 2 cbr 210 ------- 6 1.0 2.0 150 150
+ 0.03171 1 2 cbr 210 ------- 6 1.0 2.0 151 151
d 0.03171 1 2 cbr 210 ------- 6 1.0 2.0 151 151
r 0.03176 1 2 cbr 210 ------- 6 1.0 2.0 6 6
+ 0.03192 1 2 cbr 210 ------- 6 1.0 2.0 152 152
d 0.03192 1 2 cbr 210 ------- 6 1.0 2.0 152 152
- 0.03192 1 2 cbr 210 ------- 6 1.0 2.0 19 19
+ 0.03213 1 2 cbr 210 ------- 6 1.0 2.0 153 153
+ 0.03234 1 2 cbr 210 ------- 6 1.0 2.0 154 154
d 0.03234 1 2 cbr 210 ------- 6 1.0 2.0 154 154
+ 0.03255 1 2 cbr 210 ------- 6 1.0 2.0 155 155
d 0.03255 1 2 cbr 210 ------- 6 1.0 2.0 155 155
+ 0.03276 1 2 cbr 210 ------- 6 1.0 2.0 156 156
d 0.03276 1 2 cbr 210 ------- 6 1.0 2.0 156 156
+ 0.03297 1 2 cbr 210 ------- 6 1.0 2.0 157 157
d 0.03297 1 2 cbr 210 ------- 6 1.0 2.0 157 157
+ 0.03318 1 2 cbr 210 ------- 6 1.0 2.0 158 158
d 0.03318 1 2 cbr 210 ------- 6 1.0 2.0 158 158
+ 0.03339 1 2 cbr 210 ------- 6 1.0 2.0 159 159
d 0.03339 1 2 cbr 210 ------- 6 1.0 2.0 159 159
r 0.03344 1 2 cbr 210 ------- 6 1.0 2.0 7 7
+ 0.0336 1 2 cbr 210 ------- 6 1.0 2.0 160 160
d 0.0336 1 2 cbr 210 ------- 6 1.0 2.0 160 160
- 0.0336 1 2 cbr 210 ------- 6 1.0 2.0 20 20
+ 0.03381 1 2 cbr 210 ------- 6 1.0 2.0 161 161
+ 0.03402 1 2 cbr 210 ------- 6 1.0 2.0 162 162
d 0.03402 1 2 cbr 210 ------- 6 1.0 2.0 162 162
+ 0.03423 1 2 cbr 210 ------- 6 1.0 2.0 163 163
d 0.03423 1 2 cbr 210 ------- 6 1.0 2.0 163 163
+ 0.03444 1 2 cbr 210 ------- 6 1.0 2.0 164 164
d 0.03444 1 2 cbr 210 ------- 6 1.0 2.0 164 164
+ 0.03465 1 2 cbr 210 ------- 6 1.0 2.0 165 165
d 0.03465 1 2 cbr 210 ------- 6 1.0 2.0 165 165
+ 0.03486 1 2 cbr 210 ------- 6 1.0 2.0 166 166
d 0.03486 1 2 cbr 210 ------- 6 1.0 2.0 166 166
+ 0.03507 1 2 cbr 210 ------- 6 1.0 2.0 167 167
d 0.03507 1 2 cbr 210 ------- 6 1.0 2.0 167 167
r 0.03512 1 2 cbr 210 ------- 6 1.0 2.0 8 8
+ 0.03528 1 2 cbr 210 ------- 6 1.0 2.0 168 168
d 0.03528 1 2 cbr 210 ------- 6 1.0 2.0 168 168
- 0.03528 1 2 cbr 210 ------- 6 1.0 2.0 21 21
+ 0.03549 1 2 cbr 210 ------- 6 1.0 2.0 169 169
+ 0.0357 1 2 cbr 210 ------- 6 1.0 2.0 170 170
d 0.0357 1 2 cbr 210 ------- 6 1.0 2.0 170 170
+ 0.03591 1 2 cbr 210 ------- 6 1.0 2.0 171 171
d 0.03591 1 2 cbr 210 ------- 6 1.0 2.0 171 171
+ 0.03612 1 2 cbr 210 ------- 6 1.0 2.0 172 172
d 0.03612 1 2 cbr 210 ------- 6 1.0 2.0 172 172
+ 0.03633 1 2 cbr 210 ------- 6 1.0 2.0 173 173
d 0.03633 1 2 cbr 210 ------- 6 1.0 2.0 173 173
+ 0.03654 1 2 cbr 210 ------- 6 1.0 2.0 174 174
d 0.03654 1 2 cbr 210 ------- 6 1.0 2.0 174 174
+ 0.03675 1 2 cbr 210 ------- 6 1.0 2.0 175 175
d 0.03675 1 2 cbr 210 ------- 6 1.0 2.0 175 175
r 0.0368 1 2 cbr 210 ------- 6 1.0 2.0 9 9
+ 0.03696 1 2 cbr 210 ------- 6 1.0 2.0 176 176
d 0.03696 1 2 cbr 210 ------- 6 1.0 2.0 176 176
- 0.03696 1 2 cbr 210 ------- 6 1.0 2.0 24 24
+ 0.03717 1 2 cbr 210 ------- 6 1.0 2.0 177 177
+ 0.03738 1 2 cbr 210 ------- 6 1.0 2.0 178 178
d 0.03738 1 2 cbr 210 ------- 6 1.0 2.0 178 178
+ 0.03759 1 2 cbr 210 ------- 6 1.0 2.0 179 179
d 0.03759 1 2 cbr 210 ------- 6 1.0 2.0 179 179
+ 0.0378 1 2 cbr 210 ------- 6 1.0 2.0 180 180
d 0.0378 1 2 cbr 210 ------- 6 1.0 2.0 180 180
+ 0.03801 1 2 cbr 210 ------- 6 1.0 2.0 181 181
d 0.03801 1 2 cbr 210 ------- 6 1.0 2.0 181 181
+ 0.03822 1 2 cbr 210 ------- 6 1.0 2.0 182 182
d 0.03822 1 2 cbr 210 ------- 6 1.0 2.0 182 182
+ 0.03843 1 2 cbr 210 ------- 6 1.0 2.0 183 183
d 0.03843 1 2 cbr 210 ------- 6 1.0 2.0 183 183
r 0.03848 1 2 cbr 210 ------- 6 1.0 2.0 10 10
+ 0.03864 1 2 cbr 210 ------- 6 1.0 2.0 184 184
d 0.03864 1 2 cbr 210 ------- 6 1.0 2.0 184 184
- 0.03864 1 2 cbr 210 ------- 6 1.0 2.0 32 32
+ 0.03885 1 2 cbr 210 ------- 6 1.0 2.0 185 185
+ 0.03906 1 2 cbr 210 ------- 6 1.0 2.0 186 186
d 0.03906 1 2 cbr 210 ------- 6 1.0 2.0 186 186
+ 0.03927 1 2 cbr 210 ------- 6 1.0 2.0 187 187
d 0.03927 1 2 cbr 210 ------- 6 1.0 2.0 187 187
+ 0.03948 1 2 cbr 210 ------- 6 1.0 2.0 188 188
d 0.03948 1 2 cbr 210 ------- 6 1.0 2.0 188 188
+ 0.03969 1 2 cbr 210 ------- 6 1.0 2.0 189 189
d 0.03969 1 2 cbr 210 ------- 6 1.0 2.0 189 189
+ 0.0399 1 2 cbr 210 ------- 6 1.0 2.0 190 190
d 0.0399 1 2 cbr 210 ------- 6 1.0 2.0 190 190
+ 0.04011 1 2 cbr 210 ------- 6 1.0 2.0 191 191
d 0.04011 1 2 cbr 210 ------- 6 1.0 2.0 191 191
r 0.04016 1 2 cbr 210 ------- 6 1.0 2.0 11 11
+ 0.04032 1 2 cbr 210 ------- 6 1.0 2.0 192 192
d 0.04032 1 2 cbr 210 ------- 6 1.0 2.0 192 192
- 0.04032 1 2 cbr 210 ------- 6 1.0 2.0 40 40
+ 0.04053 1 2 cbr 210 ------- 6 1.0 2.0 193 193
+ 0.04074 1 2 cbr 210 ------- 6 1.0 2.0 194 194
d 0.04074 1 2 cbr 210 ------- 6 1.0 2.0 194 194
+ 0.04095 1 2 cbr 210 ------- 6 1.0 2.0 195 195
d 0.04095 1 2 cbr 210 ------- 6 1.0 2.0 195 195
+ 0.04116 1 2 cbr 210 ------- 6 1.0 2.0 196 196
d 0.04116 1 2 cbr 210 ------- 6 1.0 2.0 196 196
+ 0.04137 1 2 cbr 210 ------- 6 1.0 2.0 197 197
d 0.04137 1 2 cbr 210 ------- 6 1.0 2.0 197 197
+ 0.04158 1 2 cbr 210 ------- 6 1.0 2.0 198 198
d 0.04158 1 2 cbr 210 ------- 6 1.0 2.0 198 198
+ 0.04179 1 2 cbr 210 ------- 6 1.0 2.0 199 199
d 0.04179 1 2 cbr 210 ------- 6 1.0 2.0 199 199
r 0.04184 1 2 cbr 210 ------- 6 1.0 2.0 12 12
+ 0.042 1 2 cbr 210 ------- 6 1.0 2.0 200 200
d 0.042 1 2 cbr 210 ------- 6 1.0 2.0 200 200
- 0.042 1 2 cbr 210 ------- 6 1.0 2.0 48 48
+ 0.04221 1 2 cbr 210 ------- 6 1.0 2.0 201 201
+ 0.04242 1 2 cbr 210 ------- 6 1.0 2.0 202 202
d 0.04242 1 2 cbr 210 ------- 6 1.0 2.0 202 202
+ 0.04263 1 2 cbr 210 ------- 6 1.0 2.0 203 203
d 0.04263 1 2 cbr 210 ------- 6 1.0 2.0 203 203
+ 0.04284 1 2 cbr 210 ------- 6 1.0 2.0 204 204
d 0.04284 1 2 cbr 210 ------- 6 1.0 2.0 204 204
+ 0.04305 1 2 cbr 210 ------- 6 1.0 2.0 205 205
d 0.04305 1 2 cbr 210 ------- 6 1.0 2.0 205 205
+ 0.04326 1 2 cbr 210 ------- 6 1.0 2.0 206 206
d 0.04326 1 2 cbr 210 ------- 6 1.0 2.0 206 206
+ 0.04347 1 2 cbr 210 ------- 6 1.0 2.0 207 207
d 0.04347 1 2 cbr 210 ------- 6 1.0 2.0 207 207
r 0.04352 1 2 cbr 210 ------- 6 1.0 2.0 13 13
+ 0.04368 1 2 cbr 210 ------- 6 1.0 2.0 208 208
d 0.04368 1 2 cbr 210 ------- 6 1.0 2.0 208 208
- 0.04368 1 2 cbr 210 ------- 6 1.0 2.0 56 56
+ 0.04389 1 2 cbr 210 ------- 6 1.0 2.0 209 209
+ 0.0441 1 2 cbr 210 ------- 6 1.0 2.0 210 210
d 0.0441 1 2 cbr 210 ------- 6 1.0 2.0 210 210
+ 0.04431 1 2 cbr 210 ------- 6 1.0 2.0 211 211
d 0.04431 1 2 cbr 210 ------- 6 1.0 2.0 211 211
+ 0.04452 1 2 cbr 210 ------- 6 1.0 2.0 212 212
d 0.04452 1 2 cbr 210 ------- 6 1.0 2.0 212 212
+ 0.04473 1 2 cbr 210 ------- 6 1.0 2.0 213 213
d 0.04473 1 2 cbr 210 ------- 6 1.0 2.0 213 213
+ 0.04494 1 2 cbr 210 ------- 6 1.0 2.0 214 214
d 0.04494 1 2 cbr 210 ------- 6 1.0 2.0 214 214
+ 0.04515 1 2 cbr 210 ------- 6 1.0 2.0 215 215
d 0.04515 1 2 cbr 210 ------- 6 1.0 2.0 215 215
r 0.0452 1 2 cbr 210 ------- 6 1.0 2.0 14 14
+ 0.04536 1 2 cbr 210 ------- 6 1.0 2.0 216 216
d 0.04536 1 2 cbr 210 ------- 6 1.0 2.0 216 216
- 0.04536 1 2 cbr 210 ------- 6 1.0 2.0 64 64
+ 0.04557 1 2 cbr 210 ------- 6 1.0 2.0 217 217
+ 0.04578 1 2 cbr 210 ------- 6 1.0 2.0 218 218
d 0.04578 1 2 cbr 210 ------- 6 1.0 2.0 218 218
+ 0.04599 1 2 cbr 210 ------- 6 1.0 2.0 219 219
d 0.04599 1 2 cbr 210 ------- 6 1.0 2.0 219 219
+ 0.0462 1 2 cbr 210 ------- 6 1.0 2.0 220 220
d 0.0462 1 2 cbr 210 ------- 6 1.0 2.0 220 220
+ 0.04641 1 2 cbr 210 ------- 6 1.0 2.0 221 221
d 0.04641 1 2 cbr 210 ------- 6 1.0 2.0 221 221
+ 0.04662 1 2 cbr 210 ------- 6 1.0 2.0 222 222
d 0.04662 1 2 cbr 210 ------- 6 1.0 2.0 222 222
+ 0.04683 1 2 cbr 210 ------- 6 1.0 2.0 223 223
d 0.04683 1 2 cbr 210 ------- 6 1.0 2.0 223 223
r 0.04688 1 2 cbr 210 ------- 6 1.0 2.0 15 15
- 0.04704 1 2 cbr 210 ------- 6 1.0 2.0 72 72
+ 0.04704 1 2 cbr 210 ------- 6 1.0 2.0 224 224
+ 0.04725 1 2 cbr 210 ------- 6 1.0 2.0 225 225
d 0.04725 1 2 cbr 210 ------- 6 1.0 2.0 225 225
+ 0.04746 1 2 cbr 210 ------- 6 1.0 2.0 226 226
d 0.04746 1 2 cbr 210 ------- 6 1.0 2.0 226 226
+ 0.04767 1 2 cbr 210 ------- 6 1.0 2.0 227 227
d 0.04767 1 2 cbr 210 ------- 6 1.0 2.0 227 227
+ 0.04788 1 2 cbr 210 ------- 6 1.0 2.0 228 228
d 0.04788 1 2 cbr 210 ------- 6 1.0 2.0 228 228
+ 0.04809 1 2 cbr 210 ------- 6 1.0 2.0 229 229
d 0.04809 1 2 cbr 210 ------- 6 1.0 2.0 229 229
+ 0.0483 1 2 cbr 210 ------- 6 1.0 2.0 230 230
d 0.0483 1 2 cbr 210 ------- 6 1.0 2.0 230 230
+ 0.04851 1 2 cbr 210 ------- 6 1.0 2.0 231 231
d 0.04851 1 2 cbr 210 ------- 6 1.0 2.0 231 231
r 0.04856 1 2 cbr 210 ------- 6 1.0 2.0 16 16
- 0.04872 1 2 cbr 210 ------- 6 1.0 2.0 81 81
+ 0.04872 1 2 cbr 210 ------- 6 1.0 2.0 232 232
+ 0.04893 1 2 cbr 210 ------- 6 1.0 2.0 233 233
d 0.04893 1 2 cbr 210 ------- 6 1.0 2.0 233 233
+ 0.04914 1 2 cbr 210 ------- 6 1.0 2.0 234 234
d 0.04914 1 2 cbr 210 ------- 6 1.0 2.0 234 234
+ 0.04935 1 2 cbr 210 ------- 6 1.0 2.0 235 235
d 0.04935 1 2 cbr 210 ------- 6 1.0 2.0 235 235
+ 0.04956 1 2 cbr 210 ------- 6 1.0 2.0 236 236
d 0.04956 1 2 cbr 210 ------- 6 1.0 2.0 236 236
+ 0.04977 1 2 cbr 210 ------- 6 1.0 2.0 237 237
d 0.04977 1 2 cbr 210 ------- 6 1.0 2.0 237 237
+ 0.04998 1 2 cbr 210 ------- 6 1.0 2.0 238 238
d 0.04998 1 2 cbr 210 ------- 6 1.0 2.0 238 238
+ 0.05019 1 2 cbr 210 ------- 6 1.0 2.0 239 239
d 0.05019 1 2 cbr 210 ------- 6 1.0 2.0 239 239
r 0.05024 1 2 cbr 210 ------- 6 1.0 2.0 17 17
- 0.0504 1 2 cbr 210 ------- 6 1.0 2.0 89 89
+ 0.0504 1 2 cbr 210 ------- 6 1.0 2.0 240 240
+ 0.05061 1 2 cbr 210 ------- 6 1.0 2.0 241 241
d 0.05061 1 2 cbr 210 ------- 6 1.0 2.0 241 241
+ 0.05082 1 2 cbr 210 ------- 6 1.0 2.0 242 242
d 0.05082 1 2 cbr 210 ------- 6 1.0 2.0 242 242
+ 0.05103 1 2 cbr 210 ------- 6 1.0 2.0 243 243
d 0.05103 1 2 cbr 210 ------- 6 1.0 2.0 243 243
+ 0.05124 1 2 cbr 210 ------- 6 1.0 2.0 244 244
d 0.05124 1 2 cbr 210 ------- 6 1.0 2.0 244 244
+ 0.05145 1 2 cbr 210 ------- 6 1.0 2.0 245 245
d 0.05145 1 2 cbr 210 ------- 6 1.0 2.0 245 245
+ 0.05166 1 2 cbr 210 ------- 6 1.0 2.0 246 246
d 0.05166 1 2 cbr 210 ------- 6 1.0 2.0 246 246
+ 0.05187 1 2 cbr 210 ------- 6 1.0 2.0 247 247
d 0.05187 1 2 cbr 210 ------- 6 1.0 2.0 247 247
r 0.05192 1 2 cbr 210 ------- 6 1.0 2.0 18 18
- 0.05208 1 2 cbr 210 ------- 6 1.0 2.0 97 97
+ 0.05208 1 2 cbr 210 ------- 6 1.0 2.0 248 248
+ 0.05229 1 2 cbr 210 ------- 6 1.0 2.0 249 249
d 0.05229 1 2 cbr 210 ------- 6 1.0 2.0 249 249
+ 0.0525 1 2 cbr 210 ------- 6 1.0 2.0 250 250
d 0.0525 1 2 cbr 210 ------- 6 1.0 2.0 250 250
+ 0.05271 1 2 cbr 210 ------- 6 1.0 2.0 251 251
d 0.05271 1 2 cbr 210 ------- 6 1.0 2.0 251 251
+ 0.05292 1 2 cbr 210 ------- 6 1.0 2.0 252 252
d 0.05292 1 2 cbr 210 ------- 6 1.0 2.0 252 252
+ 0.05313 1 2 cbr 210 ------- 6 1.0 2.0 253 253
d 0.05313 1 2 cbr 210 ------- 6 1.0 2.0 253 253
+ 0.05334 1 2 cbr 210 ------- 6 1.0 2.0 254 254
d 0.05334 1 2 cbr 210 ------- 6 1.0 2.0 254 254
+ 0.05355 1 2 cbr 210 ------- 6 1.0 2.0 255 255
d 0.05355 1 2 cbr 210 ------- 6 1.0 2.0 255 255
r 0.0536 1 2 cbr 210 ------- 6 1.0 2.0 19 19
- 0.05376 1 2 cbr 210 ------- 6 1.0 2.0 105 105
+ 0.05376 1 2 cbr 210 ------- 6 1.0 2.0 256 256
+ 0.05397 1 2 cbr 210 ------- 6 1.0 2.0 257 257
d 0.05397 1 2 cbr 210 ------- 6 1.0 2.0 257 257
+ 0.05418 1 2 cbr 210 ------- 6 1.0 2.0 258 258
d 0.05418 1 2 cbr 210 ------- 6 1.0 2.0 258 258
+ 0.05439 1 2 cbr 210 ------- 6 1.0 2.0 259 259
d 0.05439 1 2 cbr 210 ------- 6 1.0 2.0 259 259
+ 0.0546 1 2 cbr 210 ------- 6 1.0 2.0 260 260
d 0.0546 1 2 cbr 210 ------- 6 1.0 2.0 260 260
+ 0.05481 1 2 cbr 210 ------- 6 1.0 2.0 261 261
d 0.05481 1 2 cbr 210 ------- 6 1.0 2.0 261 261
+ 0.05502 1 2 cbr 210 ------- 6 1.0 2.0 262 262
d 0.05502 1 2 cbr 210 ------- 6 1.0 2.0 262 262
+ 0.05523 1 2 cbr 210 ------- 6 1.0 2.0 263 263
d 0.05523 1 2 cbr 210 ------- 6 1.0 2.0 263 263
r 0.05528 1 2 cbr 210 ------- 6 1.0 2.0 20 20
- 0.05544 1 2 cbr 210 ------- 6 1.0 2.0 113 113
+ 0.05544 1 2 cbr 210 ------- 6 1.0 2.0 264 264
+ 0.05565 1 2 cbr 210 ------- 6 1.0 2.0 265 265
d 0.05565 1 2 cbr 210 ------- 6 1.0 2.0 265 265
+ 0.05586 1 2 cbr 210 ------- 6 1.0 2.0 266 266
d 0.05586 1 2 cbr 210 ------- 6 1.0 2.0 266 266
+ 0.05607 1 2 cbr 210 ------- 6 1.0 2.0 267 267
d 0.05607 1 2 cbr 210 ------- 6 1.0 2.0 267 267
+ 0.05628 1 2 cbr 210 ------- 6 1.0 2.0 268 268
d 0.05628 1 2 cbr 210 ------- 6 1.0 2.0 268 268
+ 0.05649 1 2 cbr 210 ------- 6 1.0 2.0 269 269
d 0.05649 1 2 cbr 210 ------- 6 1.0 2.0 269 269
+ 0.0567 1 2 cbr 210 ------- 6 1.0 2.0 270 270
d 0.0567 1 2 cbr 210 ------- 6 1.0 2.0 270 270
+ 0.05691 1 2 cbr 210 ------- 6 1.0 2.0 271 271
d 0.05691 1 2 cbr 210 ------- 6 1.0 2.0 271 271
r 0.05696 1 2 cbr 210 ------- 6 1.0 2.0 21 21
- 0.05712 1 2 cbr 210 ------- 6 1.0 2.0 121 121
+ 0.05712 1 2 cbr 210 ------- 6 1.0 2.0 272 272
+ 0.05733 1 2 cbr 210 ------- 6 1.0 2.0 273 273
d 0.05733 1 2 cbr 210 ------- 6 1.0 2.0 273 273
+ 0.05754 1 2 cbr 210 ------- 6 1.0 2.0 274 274
d 0.05754 1 2 cbr 210 ------- 6 1.0 2.0 274 274
+ 0.05775 1 2 cbr 210 ------- 6 1.0 2.0 275 275
d 0.05775 1 2 cbr 210 ------- 6 1.0 2.0 275 275
+ 0.05796 1 2 cbr 210 ------- 6 1.0 2.0 276 276
d 0.05796 1 2 cbr 210 ------- 6 1.0 2.0 276 276
+ 0.05817 1 2 cbr 210 ------- 6 1.0 2.0 277 277
d 0.05817 1 2 cbr 210 ------- 6 1.0 2.0 277 277
+ 0.05838 1 2 cbr 210 ------- 6 1.0 2.0 278 278
d 0.05838 1 2 cbr 210 ------- 6 1.0 2.0 278 278
+ 0.05859 1 2 cbr 210 ------- 6 1.0 2.0 279 279
d 0.05859 1 2 cbr 210 ------- 6 1.0 2.0 279 279
r 0.05864 1 2 cbr 210 ------- 6 1.0 2.0 24 24
- 0.0588 1 2 cbr 210 ------- 6 1.0 2.0 129 129
+ 0.0588 1 2 cbr 210 ------- 6 1.0 2.0 280 280
+ 0.05901 1 2 cbr 210 ------- 6 1.0 2.0 281 281
d 0.05901 1 2 cbr 210 ------- 6 1.0 2.0 281 281
+ 0.05922 1 2 cbr 210 ------- 6 1.0 2.0 282 282
d 0.05922 1 2 cbr 210 ------- 6 1.0 2.0 282 282
+ 0.05943 1 2 cbr 210 ------- 6 1.0 2.0 283 283
d 0.05943 1 2 cbr 210 ------- 6 1.0 2.0 283 283
+ 0.05964 1 2 cbr 210 ------- 6 1.0 2.0 284 284
d 0.05964 1 2 cbr 210 ------- 6 1.0 2.0 284 284
+ 0.05985 1 2 cbr 210 ------- 6 1.0 2.0 285 285
d 0.05985 1 2 cbr 210 ------- 6 1.0 2.0 285 285
+ 0.06006 1 2 cbr 210 ------- 6 1.0 2.0 286 286
d 0.06006 1 2 cbr 210 ------- 6 1.0 2.0 286 286
+ 0.06027 1 2 cbr 210 ------- 6 1.0 2.0 287 287
d 0.06027 1 2 cbr 210 ------- 6 1.0 2.0 287 287
r 0.06032 1 2 cbr 210 ------- 6 1.0 2.0 32 32
- 0.06048 1 2 cbr 210 ------- 6 1.0 2.0 137 137
+ 0.06048 1 2 cbr 210 ------- 6 1.0 2.0 288 288
+ 0.06069 1 2 cbr 210 ------- 6 1.0 2.0 289 289
d 0.06069 1 2 cbr 210 ------- 6 1.0 2.0 289 289
+ 0.0609 1 2 cbr 210 ------- 6 1.0 2.0 290 290
d 0.0609 1 2 cbr 210 ------- 6 1.0 2.0 290 290
+ 0.06111 1 2 cbr 210 ------- 6 1.0 2.0 291 291
d 0.06111 1 2 cbr 210 ------- 6 1.0 2.0 291 291
+ 0.06132 1 2 cbr 210 ------- 6 1.0 2.0 292 292
d 0.06132 1 2 cbr 210 ------- 6 1.0 2.0 292 292
+ 0.06153 1 2 cbr 210 ------- 6 1.0 2.0 293 293
d 0.06153 1 2 cbr 210 ------- 6 1.0 2.0 293 293
+ 0.06174 1 2 cbr 210 ------- 6 1.0 2.0 294 294
d 0.06174 1 2 cbr 210 ------- 6 1.0 2.0 294 294
+ 0.06195 1 2 cbr 210 ------- 6 1.0 2.0 295 295
d 0.06195 1 2 cbr 210 ------- 6 1.0 2.0 295 295
r 0.062 1 2 cbr 210 ------- 6 1.0 2.0 40 40
- 0.06216 1 2 cbr 210 ------- 6 1.0 2.0 145 145
+ 0.06216 1 2 cbr 210 ------- 6 1.0 2.0 296 296
+ 0.06237 1 2 cbr 210 ------- 6 1.0 2.0 297 297
d 0.06237 1 2 cbr 210 ------- 6 1.0 2.0 297 297
+ 0.06258 1 2 cbr 210 ------- 6 1.0 2.0 298 298
d 0.06258 1 2 cbr 210 ------- 6 1.0 2.0 298 298
+ 0.06279 1 2 cbr 210 ------- 6 1.0 2.0 299 299
d 0.06279 1 2 cbr 210 ------- 6 1.0 2.0 299 299
+ 0.063 1 2 cbr 210 ------- 6 1.0 2.0 300 300
d 0.063 1 2 cbr 210 ------- 6 1.0 2.0 300 300
+ 0.06321 1 2 cbr 210 ------- 6 1.0 2.0 301 301
d 0.06321 1 2 cbr 210 ------- 6 1.0 2.0 301 301
+ 0.06342 1 2 cbr 210 ------- 6 1.0 2.0 302 302
d 0.06342 1 2 cbr 210 ------- 6 1.0 2.0 302 302
+ 0.06363 1 2 cbr 210 ------- 6 1.0 2.0 303 303
d 0.06363 1 2 cbr 210 ------- 6 1.0 2.0 303 303
r 0.06368 1 2 cbr 210 ------- 6 1.0 2.0 48 48
- 0.06384 1 2 cbr 210 ------- 6 1.0 2.0 153 153
+ 0.06384 1 2 cbr 210 ------- 6 1.0 2.0 304 304
+ 0.06405 1 2 cbr 210 ------- 6 1.0 2.0 305 305
d 0.06405 1 2 cbr 210 ------- 6 1.0 2.0 305 305
+ 0.06426 1 2 cbr 210 ------- 6 1.0 2.0 306 306
d 0.06426 1 2 cbr 210 ------- 6 1.0 2.0 306 306
+ 0.06447 1 2 cbr 210 ------- 6 1.0 2.0 307 307
d 0.06447 1 2 cbr 210 ------- 6 1.0 2.0 307 307
+ 0.06468 1 2 cbr 210 ------- 6 1.0 2.0 308 308
d 0.06468 1 2 cbr 210 ------- 6 1.0 2.0 308 308
+ 0.06489 1 2 cbr 210 ------- 6 1.0 2.0 309 309
d 0.06489 1 2 cbr 210 ------- 6 1.0 2.0 309 309
+ 0.0651 1 2 cbr 210 ------- 6 1.0 2.0 310 310
d 0.0651 1 2 cbr 210 ------- 6 1.0 2.0 310 310
+ 0.06531 1 2 cbr 210 ------- 6 1.0 2.0 311 311
d 0.06531 1 2 cbr 210 ------- 6 1.0 2.0 311 311
r 0.06536 1 2 cbr 210 ------- 6 1.0 2.0 56 56
- 0.06552 1 2 cbr 210 ------- 6 1.0 2.0 161 161
+ 0.06552 1 2 cbr 210 ------- 6 1.0 2.0 312 312
+ 0.06573 1 2 cbr 210 ------- 6 1.0 2.0 313 313
d 0.06573 1 2 cbr 210 ------- 6 1.0 2.0 313 313
+ 0.06594 1 2 cbr 210 ------- 6 1.0 2.0 314 314