+ 0 1 2 cbr 210 ------- 6 1.0 2.0 0 0
- 0 1 2 cbr 210 ------- 6 1.0 2.0 0 0
+ 0.000224 1 2 cbr 210 ------- 6 1.0 2.0 1 1
+ 0.000448 1 2 cbr 210 ------- 6 1.0 2.0 2 2
+ 0.000672 1 2 cbr 210 ------- 6 1.0 2.0 3 3
+ 0.000896 1 2 cbr 210 ------- 6 1.0 2.0 4 4
+ 0.00112 1 2 cbr 210 ------- 6 1.0 2.0 5 5
+ 0.001344 1 2 cbr 210 ------- 6 1.0 2.0 6 6
+ 0.001568 1 2 cbr 210 ------- 6 1.0 2.0 7 7
- 0.00168 1 2 cbr 210 ------- 6 1.0 2.0 1 1
+ 0.001792 1 2 cbr 210 ------- 6 1.0 2.0 8 8
+ 0.002016 1 2 cbr 210 ------- 6 1.0 2.0 9 9
+ 0.00224 1 2 cbr 210 ------- 6 1.0 2.0 10 10
+ 0.002464 1 2 cbr 210 ------- 6 1.0 2.0 11 11
+ 0.002688 1 2 cbr 210 ------- 6 1.0 2.0 12 12
+ 0.002912 1 2 cbr 210 ------- 6 1.0 2.0 13 13
+ 0.003136 1 2 cbr 210 ------- 6 1.0 2.0 14 14
+ 0.00336 1 2 cbr 210 ------- 6 1.0 2.0 15 15
- 0.00336 1 2 cbr 210 ------- 6 1.0 2.0 2 2
+ 0.003584 1 2 cbr 210 ------- 6 1.0 2.0 16 16
+ 0.003808 1 2 cbr 210 ------- 6 1.0 2.0 17 17
+ 0.004032 1 2 cbr 210 ------- 6 1.0 2.0 18 18
+ 0.004256 1 2 cbr 210 ------- 6 1.0 2.0 19 19
+ 0.00448 1 2 cbr 210 ------- 6 1.0 2.0 20 20
+ 0.004704 1 2 cbr 210 ------- 6 1.0 2.0 21 21
+ 0.004928 1 2 cbr 210 ------- 6 1.0 2.0 22 22
d 0.004928 1 2 cbr 210 ------- 6 1.0 2.0 22 22
- 0.00504 1 2 cbr 210 ------- 6 1.0 2.0 3 3
+ 0.005152 1 2 cbr 210 ------- 6 1.0 2.0 23 23
+ 0.005376 1 2 cbr 210 ------- 6 1.0 2.0 24 24
d 0.005376 1 2 cbr 210 ------- 6 1.0 2.0 24 24
+ 0.0056 1 2 cbr 210 ------- 6 1.0 2.0 25 25
d 0.0056 1 2 cbr 210 ------- 6 1.0 2.0 25 25
+ 0.005824 1 2 cbr 210 ------- 6 1.0 2.0 26 26
d 0.005824 1 2 cbr 210 ------- 6 1.0 2.0 26 26
+ 0.006048 1 2 cbr 210 ------- 6 1.0 2.0 27 27
d 0.006048 1 2 cbr 210 ------- 6 1.0 2.0 27 27
+ 0.006272 1 2 cbr 210 ------- 6 1.0 2.0 28 28
d 0.006272 1 2 cbr 210 ------- 6 1.0 2.0 28 28
+ 0.006496 1 2 cbr 210 ------- 6 1.0 2.0 29 29
d 0.006496 1 2 cbr 210 ------- 6 1.0 2.0 29 29
- 0.00672 1 2 cbr 210 ------- 6 1.0 2.0 4 4
+ 0.00672 1 2 cbr 210 ------- 6 1.0 2.0 30 30
+ 0.006944 1 2 cbr 210 ------- 6 1.0 2.0 31 31
d 0.006944 1 2 cbr 210 ------- 6 1.0 2.0 31 31
+ 0.007168 1 2 cbr 210 ------- 6 1.0 2.0 32 32
d 0.007168 1 2 cbr 210 ------- 6 1.0 2.0 32 32
+ 0.007392 1 2 cbr 210 ------- 6 1.0 2.0 33 33
d 0.007392 1 2 cbr 210 ------- 6 1.0 2.0 33 33
+ 0.007616 1 2 cbr 210 ------- 6 1.0 2.0 34 34
d 0.007616 1 2 cbr 210 ------- 6 1.0 2.0 34 34
+ 0.00784 1 2 cbr 210 ------- 6 1.0 2.0 35 35
d 0.00784 1 2 cbr 210 ------- 6 1.0 2.0 35 35
+ 0.008064 1 2 cbr 210 ------- 6 1.0 2.0 36 36
d 0.008064 1 2 cbr 210 ------- 6 1.0 2.0 36 36
+ 0.008288 1 2 cbr 210 ------- 6 1.0 2.0 37 37
d 0.008288 1 2 cbr 210 ------- 6 1.0 2.0 37 37
- 0.0084 1 2 cbr 210 ------- 6 1.0 2.0 5 5
+ 0.008512 1 2 cbr 210 ------- 6 1.0 2.0 38 38
+ 0.008736 1 2 cbr 210 ------- 6 1.0 2.0 39 39
d 0.008736 1 2 cbr 210 ------- 6 1.0 2.0 39 39
+ 0.00896 1 2 cbr 210 ------- 6 1.0 2.0 40 40
d 0.00896 1 2 cbr 210 ------- 6 1.0 2.0 40 40
+ 0.009184 1 2 cbr 210 ------- 6 1.0 2.0 41 41
d 0.009184 1 2 cbr 210 ------- 6 1.0 2.0 41 41
+ 0.009408 1 2 cbr 210 ------- 6 1.0 2.0 42 42
d 0.009408 1 2 cbr 210 ------- 6 1.0 2.0 42 42
+ 0.009632 1 2 cbr 210 ------- 6 1.0 2.0 43 43
d 0.009632 1 2 cbr 210 ------- 6 1.0 2.0 43 43
+ 0.009856 1 2 cbr 210 ------- 6 1.0 2.0 44 44
d 0.009856 1 2 cbr 210 ------- 6 1.0 2.0 44 44
- 0.01008 1 2 cbr 210 ------- 6 1.0 2.0 6 6
+ 0.01008 1 2 cbr 210 ------- 6 1.0 2.0 45 45
+ 0.010304 1 2 cbr 210 ------- 6 1.0 2.0 46 46
d 0.010304 1 2 cbr 210 ------- 6 1.0 2.0 46 46
+ 0.010528 1 2 cbr 210 ------- 6 1.0 2.0 47 47
d 0.010528 1 2 cbr 210 ------- 6 1.0 2.0 47 47
+ 0.010752 1 2 cbr 210 ------- 6 1.0 2.0 48 48
d 0.010752 1 2 cbr 210 ------- 6 1.0 2.0 48 48
+ 0.010976 1 2 cbr 210 ------- 6 1.0 2.0 49 49
d 0.010976 1 2 cbr 210 ------- 6 1.0 2.0 49 49
+ 0.0112 1 2 cbr 210 ------- 6 1.0 2.0 50 50
d 0.0112 1 2 cbr 210 ------- 6 1.0 2.0 50 50
+ 0.011424 1 2 cbr 210 ------- 6 1.0 2.0 51 51
d 0.011424 1 2 cbr 210 ------- 6 1.0 2.0 51 51
+ 0.011648 1 2 cbr 210 ------- 6 1.0 2.0 52 52
d 0.011648 1 2 cbr 210 ------- 6 1.0 2.0 52 52
- 0.01176 1 2 cbr 210 ------- 6 1.0 2.0 7 7
+ 0.011872 1 2 cbr 210 ------- 6 1.0 2.0 53 53
+ 0.012096 1 2 cbr 210 ------- 6 1.0 2.0 54 54
d 0.012096 1 2 cbr 210 ------- 6 1.0 2.0 54 54
+ 0.01232 1 2 cbr 210 ------- 6 1.0 2.0 55 55
d 0.01232 1 2 cbr 210 ------- 6 1.0 2.0 55 55
+ 0.012544 1 2 cbr 210 ------- 6 1.0 2.0 56 56
d 0.012544 1 2 cbr 210 ------- 6 1.0 2.0 56 56
+ 0.012768 1 2 cbr 210 ------- 6 1.0 2.0 57 57
d 0.012768 1 2 cbr 210 ------- 6 1.0 2.0 57 57
+ 0.012992 1 2 cbr 210 ------- 6 1.0 2.0 58 58
d 0.012992 1 2 cbr 210 ------- 6 1.0 2.0 58 58
+ 0.013216 1 2 cbr 210 ------- 6 1.0 2.0 59 59
d 0.013216 1 2 cbr 210 ------- 6 1.0 2.0 59 59
- 0.01344 1 2 cbr 210 ------- 6 1.0 2.0 8 8
+ 0.01344 1 2 cbr 210 ------- 6 1.0 2.0 60 60
+ 0.013664 1 2 cbr 210 ------- 6 1.0 2.0 61 61
d 0.013664 1 2 cbr 210 ------- 6 1.0 2.0 61 61
+ 0.013888 1 2 cbr 210 ------- 6 1.0 2.0 62 62
d 0.013888 1 2 cbr 210 ------- 6 1.0 2.0 62 62
+ 0.014112 1 2 cbr 210 ------- 6 1.0 2.0 63 63
d 0.014112 1 2 cbr 210 ------- 6 1.0 2.0 63 63
+ 0.014336 1 2 cbr 210 ------- 6 1.0 2.0 64 64
d 0.014336 1 2 cbr 210 ------- 6 1.0 2.0 64 64
+ 0.01456 1 2 cbr 210 ------- 6 1.0 2.0 65 65
d 0.01456 1 2 cbr 210 ------- 6 1.0 2.0 65 65
+ 0.014784 1 2 cbr 210 ------- 6 1.0 2.0 66 66
d 0.014784 1 2 cbr 210 ------- 6 1.0 2.0 66 66
+ 0.015008 1 2 cbr 210 ------- 6 1.0 2.0 67 67
d 0.015008 1 2 cbr 210 ------- 6 1.0 2.0 67 67
- 0.01512 1 2 cbr 210 ------- 6 1.0 2.0 9 9
+ 0.015232 1 2 cbr 210 ------- 6 1.0 2.0 68 68
+ 0.015456 1 2 cbr 210 ------- 6 1.0 2.0 69 69
d 0.015456 1 2 cbr 210 ------- 6 1.0 2.0 69 69
+ 0.01568 1 2 cbr 210 ------- 6 1.0 2.0 70 70
d 0.01568 1 2 cbr 210 ------- 6 1.0 2.0 70 70
+ 0.015904 1 2 cbr 210 ------- 6 1.0 2.0 71 71
d 0.015904 1 2 cbr 210 ------- 6 1.0 2.0 71 71
+ 0.016128 1 2 cbr 210 ------- 6 1.0 2.0 72 72
d 0.016128 1 2 cbr 210 ------- 6 1.0 2.0 72 72
+ 0.016352 1 2 cbr 210 ------- 6 1.0 2.0 73 73
d 0.016352 1 2 cbr 210 ------- 6 1.0 2.0 73 73
+ 0.016576 1 2 cbr 210 ------- 6 1.0 2.0 74 74
d 0.016576 1 2 cbr 210 ------- 6 1.0 2.0 74 74
+ 0.0168 1 2 cbr 210 ------- 6 1.0 2.0 75 75
d 0.0168 1 2 cbr 210 ------- 6 1.0 2.0 75 75
- 0.0168 1 2 cbr 210 ------- 6 1.0 2.0 10 10
+ 0.017024 1 2 cbr 210 ------- 6 1.0 2.0 76 76
+ 0.017248 1 2 cbr 210 ------- 6 1.0 2.0 77 77
d 0.017248 1 2 cbr 210 ------- 6 1.0 2.0 77 77
+ 0.017472 1 2 cbr 210 ------- 6 1.0 2.0 78 78
d 0.017472 1 2 cbr 210 ------- 6 1.0 2.0 78 78
+ 0.017696 1 2 cbr 210 ------- 6 1.0 2.0 79 79
d 0.017696 1 2 cbr 210 ------- 6 1.0 2.0 79 79
+ 0.01792 1 2 cbr 210 ------- 6 1.0 2.0 80 80
d 0.01792 1 2 cbr 210 ------- 6 1.0 2.0 80 80
+ 0.018144 1 2 cbr 210 ------- 6 1.0 2.0 81 81
d 0.018144 1 2 cbr 210 ------- 6 1.0 2.0 81 81
+ 0.018368 1 2 cbr 210 ------- 6 1.0 2.0 82 82
d 0.018368 1 2 cbr 210 ------- 6 1.0 2.0 82 82
- 0.01848 1 2 cbr 210 ------- 6 1.0 2.0 11 11
+ 0.018592 1 2 cbr 210 ------- 6 1.0 2.0 83 83
+ 0.018816 1 2 cbr 210 ------- 6 1.0 2.0 84 84
d 0.018816 1 2 cbr 210 ------- 6 1.0 2.0 84 84
+ 0.01904 1 2 cbr 210 ------- 6 1.0 2.0 85 85
d 0.01904 1 2 cbr 210 ------- 6 1.0 2.0 85 85
+ 0.019264 1 2 cbr 210 ------- 6 1.0 2.0 86 86
d 0.019264 1 2 cbr 210 ------- 6 1.0 2.0 86 86
+ 0.019488 1 2 cbr 210 ------- 6 1.0 2.0 87 87
d 0.019488 1 2 cbr 210 ------- 6 1.0 2.0 87 87
+ 0.019712 1 2 cbr 210 ------- 6 1.0 2.0 88 88
d 0.019712 1 2 cbr 210 ------- 6 1.0 2.0 88 88
+ 0.019936 1 2 cbr 210 ------- 6 1.0 2.0 89 89
d 0.019936 1 2 cbr 210 ------- 6 1.0 2.0 89 89
+ 0.02016 1 2 cbr 210 ------- 6 1.0 2.0 90 90
d 0.02016 1 2 cbr 210 ------- 6 1.0 2.0 90 90
- 0.02016 1 2 cbr 210 ------- 6 1.0 2.0 12 12
+ 0.020384 1 2 cbr 210 ------- 6 1.0 2.0 91 91
+ 0.020608 1 2 cbr 210 ------- 6 1.0 2.0 92 92
d 0.020608 1 2 cbr 210 ------- 6 1.0 2.0 92 92
+ 0.020832 1 2 cbr 210 ------- 6 1.0 2.0 93 93
d 0.020832 1 2 cbr 210 ------- 6 1.0 2.0 93 93
+ 0.021056 1 2 cbr 210 ------- 6 1.0 2.0 94 94
d 0.021056 1 2 cbr 210 ------- 6 1.0 2.0 94 94
+ 0.02128 1 2 cbr 210 ------- 6 1.0 2.0 95 95
d 0.02128 1 2 cbr 210 ------- 6 1.0 2.0 95 95
+ 0.021504 1 2 cbr 210 ------- 6 1.0 2.0 96 96
d 0.021504 1 2 cbr 210 ------- 6 1.0 2.0 96 96
r 0.02168 1 2 cbr 210 ------- 6 1.0 2.0 0 0
+ 0.021728 1 2 cbr 210 ------- 6 1.0 2.0 97 97
d 0.021728 1 2 cbr 210 ------- 6 1.0 2.0 97 97
- 0.02184 1 2 cbr 210 ------- 6 1.0 2.0 13 13
+ 0.021952 1 2 cbr 210 ------- 6 1.0 2.0 98 98
+ 0.022176 1 2 cbr 210 ------- 6 1.0 2.0 99 99
d 0.022176 1 2 cbr 210 ------- 6 1.0 2.0 99 99
+ 0.0224 1 2 cbr 210 ------- 6 1.0 2.0 100 100
d 0.0224 1 2 cbr 210 ------- 6 1.0 2.0 100 100
+ 0.022624 1 2 cbr 210 ------- 6 1.0 2.0 101 101
d 0.022624 1 2 cbr 210 ------- 6 1.0 2.0 101 101
+ 0.022848 1 2 cbr 210 ------- 6 1.0 2.0 102 102
d 0.022848 1 2 cbr 210 ------- 6 1.0 2.0 102 102
+ 0.023072 1 2 cbr 210 ------- 6 1.0 2.0 103 103
d 0.023072 1 2 cbr 210 ------- 6 1.0 2.0 103 103
+ 0.023296 1 2 cbr 210 ------- 6 1.0 2.0 104 104
d 0.023296 1 2 cbr 210 ------- 6 1.0 2.0 104 104
r 0.02336 1 2 cbr 210 ------- 6 1.0 2.0 1 1
+ 0.02352 1 2 cbr 210 ------- 6 1.0 2.0 105 105
d 0.02352 1 2 cbr 210 ------- 6 1.0 2.0 105 105
- 0.02352 1 2 cbr 210 ------- 6 1.0 2.0 14 14
+ 0.023744 1 2 cbr 210 ------- 6 1.0 2.0 106 106
+ 0.023968 1 2 cbr 210 ------- 6 1.0 2.0 107 107
d 0.023968 1 2 cbr 210 ------- 6 1.0 2.0 107 107
+ 0.024192 1 2 cbr 210 ------- 6 1.0 2.0 108 108
d 0.024192 1 2 cbr 210 ------- 6 1.0 2.0 108 108
+ 0.024416 1 2 cbr 210 ------- 6 1.0 2.0 109 109
d 0.024416 1 2 cbr 210 ------- 6 1.0 2.0 109 109
+ 0.02464 1 2 cbr 210 ------- 6 1.0 2.0 110 110
d 0.02464 1 2 cbr 210 ------- 6 1.0 2.0 110 110
+ 0.024864 1 2 cbr 210 ------- 6 1.0 2.0 111 111
d 0.024864 1 2 cbr 210 ------- 6 1.0 2.0 111 111
r 0.02504 1 2 cbr 210 ------- 6 1.0 2.0 2 2
+ 0.025088 1 2 cbr 210 ------- 6 1.0 2.0 112 112
d 0.025088 1 2 cbr 210 ------- 6 1.0 2.0 112 112
- 0.0252 1 2 cbr 210 ------- 6 1.0 2.0 15 15
+ 0.025312 1 2 cbr 210 ------- 6 1.0 2.0 113 113
+ 0.025536 1 2 cbr 210 ------- 6 1.0 2.0 114 114
d 0.025536 1 2 cbr 210 ------- 6 1.0 2.0 114 114
+ 0.02576 1 2 cbr 210 ------- 6 1.0 2.0 115 115
d 0.02576 1 2 cbr 210 ------- 6 1.0 2.0 115 115
+ 0.025984 1 2 cbr 210 ------- 6 1.0 2.0 116 116
d 0.025984 1 2 cbr 210 ------- 6 1.0 2.0 116 116
+ 0.026208 1 2 cbr 210 ------- 6 1.0 2.0 117 117
d 0.026208 1 2 cbr 210 ------- 6 1.0 2.0 117 117
+ 0.026432 1 2 cbr 210 ------- 6 1.0 2.0 118 118
d 0.026432 1 2 cbr 210 ------- 6 1.0 2.0 118 118
+ 0.026656 1 2 cbr 210 ------- 6 1.0 2.0 119 119
d 0.026656 1 2 cbr 210 ------- 6 1.0 2.0 119 119
r 0.02672 1 2 cbr 210 ------- 6 1.0 2.0 3 3
+ 0.02688 1 2 cbr 210 ------- 6 1.0 2.0 120 120
d 0.02688 1 2 cbr 210 ------- 6 1.0 2.0 120 120
- 0.02688 1 2 cbr 210 ------- 6 1.0 2.0 16 16
+ 0.027104 1 2 cbr 210 ------- 6 1.0 2.0 121 121
+ 0.027328 1 2 cbr 210 ------- 6 1.0 2.0 122 122
d 0.027328 1 2 cbr 210 ------- 6 1.0 2.0 122 122
+ 0.027552 1 2 cbr 210 ------- 6 1.0 2.0 123 123
d 0.027552 1 2 cbr 210 ------- 6 1.0 2.0 123 123
+ 0.027776 1 2 cbr 210 ------- 6 1.0 2.0 124 124
d 0.027776 1 2 cbr 210 ------- 6 1.0 2.0 124 124
+ 0.028 1 2 cbr 210 ------- 6 1.0 2.0 125 125
d 0.028 1 2 cbr 210 ------- 6 1.0 2.0 125 125
+ 0.028224 1 2 cbr 210 ------- 6 1.0 2.0 126 126
d 0.028224 1 2 cbr 210 ------- 6 1.0 2.0 126 126
r 0.0284 1 2 cbr 210 ------- 6 1.0 2.0 4 4
+ 0.028448 1 2 cbr 210 ------- 6 1.0 2.0 127 127
d 0.028448 1 2 cbr 210 ------- 6 1.0 2.0 127 127
- 0.02856 1 2 cbr 210 ------- 6 1.0 2.0 17 17
+ 0.028672 1 2 cbr 210 ------- 6 1.0 2.0 128 128
+ 0.028896 1 2 cbr 210 ------- 6 1.0 2.0 129 129
d 0.028896 1 2 cbr 210 ------- 6 1.0 2.0 129 129
+ 0.02912 1 2 cbr 210 ------- 6 1.0 2.0 130 130
d 0.02912 1 2 cbr 210 ------- 6 1.0 2.0 130 130
+ 0.029344 1 2 cbr 210 ------- 6 1.0 2.0 131 131
d 0.029344 1 2 cbr 210 ------- 6 1.0 2.0 131 131
+ 0.029568 1 2 cbr 210 ------- 6 1.0 2.0 132 132
d 0.029568 1 2 cbr 210 ------- 6 1.0 2.0 132 132
+ 0.029792 1 2 cbr 210 ------- 6 1.0 2.0 133 133
d 0.029792 1 2 cbr 210 ------- 6 1.0 2.0 133 133
+ 0.030016 1 2 cbr 210 ------- 6 1.0 2.0 134 134
d 0.030016 1 2 cbr 210 ------- 6 1.0 2.0 134 134
r 0.03008 1 2 cbr 210 ------- 6 1.0 2.0 5 5
+ 0.03024 1 2 cbr 210 ------- 6 1.0 2.0 135 135
d 0.03024 1 2 cbr 210 ------- 6 1.0 2.0 135 135
- 0.03024 1 2 cbr 210 ------- 6 1.0 2.0 18 18
+ 0.030464 1 2 cbr 210 ------- 6 1.0 2.0 136 136
+ 0.030688 1 2 cbr 210 ------- 6 1.0 2.0 137 137
d 0.030688 1 2 cbr 210 ------- 6 1.0 2.0 137 137
+ 0.030912 1 2 cbr 210 ------- 6 1.0 2.0 138 138
d 0.030912 1 2 cbr 210 ------- 6 1.0 2.0 138 138
+ 0.031136 1 2 cbr 210 ------- 6 1.0 2.0 139 139
d 0.031136 1 2 cbr 210 ------- 6 1.0 2.0 139 139
+ 0.03136 1 2 cbr 210 ------- 6 1.0 2.0 140 140
d 0.03136 1 2 cbr 210 ------- 6 1.0 2.0 140 140
+ 0.031584 1 2 cbr 210 ------- 6 1.0 2.0 141 141
d 0.031584 1 2 cbr 210 ------- 6 1.0 2.0 141 141
r 0.03176 1 2 cbr 210 ------- 6 1.0 2.0 6 6
+ 0.031808 1 2 cbr 210 ------- 6 1.0 2.0 142 142
d 0.031808 1 2 cbr 210 ------- 6 1.0 2.0 142 142
- 0.03192 1 2 cbr 210 ------- 6 1.0 2.0 19 19
+ 0.032032 1 2 cbr 210 ------- 6 1.0 2.0 143 143
+ 0.032256 1 2 cbr 210 ------- 6 1.0 2.0 144 144
d 0.032256 1 2 cbr 210 ------- 6 1.0 2.0 144 144
+ 0.03248 1 2 cbr 210 ------- 6 1.0 2.0 145 145
d 0.03248 1 2 cbr 210 ------- 6 1.0 2.0 145 145
+ 0.032704 1 2 cbr 210 ------- 6 1.0 2.0 146 146
d 0.032704 1 2 cbr 210 ------- 6 1.0 2.0 146 146
+ 0.032928 1 2 cbr 210 ------- 6 1.0 2.0 147 147
d 0.032928 1 2 cbr 210 ------- 6 1.0 2.0 147 147
+ 0.033152 1 2 cbr 210 ------- 6 1.0 2.0 148 148
d 0.033152 1 2 cbr 210 ------- 6 1.0 2.0 148 148
+ 0.033376 1 2 cbr 210 ------- 6 1.0 2.0 149 149
d 0.033376 1 2 cbr 210 ------- 6 1.0 2.0 149 149
r 0.03344 1 2 cbr 210 ------- 6 1.0 2.0 7 7
+ 0.0336 1 2 cbr 210 ------- 6 1.0 2.0 150 150
d 0.0336 1 2 cbr 210 ------- 6 1.0 2.0 150 150
- 0.0336 1 2 cbr 210 ------- 6 1.0 2.0 20 20
+ 0.033824 1 2 cbr 210 ------- 6 1.0 2.0 151 151
+ 0.034048 1 2 cbr 210 ------- 6 1.0 2.0 152 152
d 0.034048 1 2 cbr 210 ------- 6 1.0 2.0 152 152
+ 0.034272 1 2 cbr 210 ------- 6 1.0 2.0 153 153
d 0.034272 1 2 cbr 210 ------- 6 1.0 2.0 153 153
+ 0.034496 1 2 cbr 210 ------- 6 1.0 2.0 154 154
d 0.034496 1 2 cbr 210 ------- 6 1.0 2.0 154 154
+ 0.03472 1 2 cbr 210 ------- 6 1.0 2.0 155 155
d 0.03472 1 2 cbr 210 ------- 6 1.0 2.0 155 155
+ 0.034944 1 2 cbr 210 ------- 6 1.0 2.0 156 156
d 0.034944 1 2 cbr 210 ------- 6 1.0 2.0 156 156
r 0.03512 1 2 cbr 210 ------- 6 1.0 2.0 8 8
+ 0.035168 1 2 cbr 210 ------- 6 1.0 2.0 157 157
d 0.035168 1 2 cbr 210 ------- 6 1.0 2.0 157 157
- 0.03528 1 2 cbr 210 ------- 6 1.0 2.0 21 21
+ 0.035392 1 2 cbr 210 ------- 6 1.0 2.0 158 158
+ 0.035616 1 2 cbr 210 ------- 6 1.0 2.0 159 159
d 0.035616 1 2 cbr 210 ------- 6 1.0 2.0 159 159
+ 0.03584 1 2 cbr 210 ------- 6 1.0 2.0 160 160
d 0.03584 1 2 cbr 210 ------- 6 1.0 2.0 160 160
+ 0.036064 1 2 cbr 210 ------- 6 1.0 2.0 161 161
d 0.036064 1 2 cbr 210 ------- 6 1.0 2.0 161 161
+ 0.036288 1 2 cbr 210 ------- 6 1.0 2.0 162 162
d 0.036288 1 2 cbr 210 ------- 6 1.0 2.0 162 162
+ 0.036512 1 2 cbr 210 ------- 6 1.0 2.0 163 163
d 0.036512 1 2 cbr 210 ------- 6 1.0 2.0 163 163
+ 0.036736 1 2 cbr 210 ------- 6 1.0 2.0 164 164
d 0.036736 1 2 cbr 210 ------- 6 1.0 2.0 164 164
r 0.0368 1 2 cbr 210 ------- 6 1.0 2.0 9 9
+ 0.03696 1 2 cbr 210 ------- 6 1.0 2.0 165 165
d 0.03696 1 2 cbr 210 ------- 6 1.0 2.0 165 165
- 0.03696 1 2 cbr 210 ------- 6 1.0 2.0 23 23
+ 0.037184 1 2 cbr 210 ------- 6 1.0 2.0 166 166
+ 0.037408 1 2 cbr 210 ------- 6 1.0 2.0 167 167
d 0.037408 1 2 cbr 210 ------- 6 1.0 2.0 167 167
+ 0.037632 1 2 cbr 210 ------- 6 1.0 2.0 168 168
d 0.037632 1 2 cbr 210 ------- 6 1.0 2.0 168 168
+ 0.037856 1 2 cbr 210 ------- 6 1.0 2.0 169 169
d 0.037856 1 2 cbr 210 ------- 6 1.0 2.0 169 169
+ 0.03808 1 2 cbr 210 ------- 6 1.0 2.0 170 170
d 0.03808 1 2 cbr 210 ------- 6 1.0 2.0 170 170
+ 0.038304 1 2 cbr 210 ------- 6 1.0 2.0 171 171
d 0.038304 1 2 cbr 210 ------- 6 1.0 2.0 171 171
r 0.03848 1 2 cbr 210 ------- 6 1.0 2.0 10 10
+ 0.038528 1 2 cbr 210 ------- 6 1.0 2.0 172 172
d 0.038528 1 2 cbr 210 ------- 6 1.0 2.0 172 172
- 0.03864 1 2 cbr 210 ------- 6 1.0 2.0 30 30
+ 0.038752 1 2 cbr 210 ------- 6 1.0 2.0 173 173
+ 0.038976 1 2 cbr 210 ------- 6 1.0 2.0 174 174
d 0.038976 1 2 cbr 210 ------- 6 1.0 2.0 174 174
+ 0.0392 1 2 cbr 210 ------- 6 1.0 2.0 175 175
d 0.0392 1 2 cbr 210 ------- 6 1.0 2.0 175 175
+ 0.039424 1 2 cbr 210 ------- 6 1.0 2.0 176 176
d 0.039424 1 2 cbr 210 ------- 6 1.0 2.0 176 176
+ 0.039648 1 2 cbr 210 ------- 6 1.0 2.0 177 177
d 0.039648 1 2 cbr 210 ------- 6 1.0 2.0 177 177
+ 0.039872 1 2 cbr 210 ------- 6 1.0 2.0 178 178
d 0.039872 1 2 cbr 210 ------- 6 1.0 2.0 178 178
+ 0.040096 1 2 cbr 210 ------- 6 1.0 2.0 179 179
d 0.040096 1 2 cbr 210 ------- 6 1.0 2.0 179 179
r 0.04016 1 2 cbr 210 ------- 6 1.0 2.0 11 11
+ 0.04032 1 2 cbr 210 ------- 6 1.0 2.0 180 180
d 0.04032 1 2 cbr 210 ------- 6 1.0 2.0 180 180
- 0.04032 1 2 cbr 210 ------- 6 1.0 2.0 38 38
+ 0.040544 1 2 cbr 210 ------- 6 1.0 2.0 181 181
+ 0.040768 1 2 cbr 210 ------- 6 1.0 2.0 182 182
d 0.040768 1 2 cbr 210 ------- 6 1.0 2.0 182 182
+ 0.040992 1 2 cbr 210 ------- 6 1.0 2.0 183 183
d 0.040992 1 2 cbr 210 ------- 6 1.0 2.0 183 183
+ 0.041216 1 2 cbr 210 ------- 6 1.0 2.0 184 184
d 0.041216 1 2 cbr 210 ------- 6 1.0 2.0 184 184
+ 0.04144 1 2 cbr 210 ------- 6 1.0 2.0 185 185
d 0.04144 1 2 cbr 210 ------- 6 1.0 2.0 185 185
+ 0.041664 1 2 cbr 210 ------- 6 1.0 2.0 186 186
d 0.041664 1 2 cbr 210 ------- 6 1.0 2.0 186 186
r 0.04184 1 2 cbr 210 ------- 6 1.0 2.0 12 12
+ 0.041888 1 2 cbr 210 ------- 6 1.0 2.0 187 187
d 0.041888 1 2 cbr 210 ------- 6 1.0 2.0 187 187
- 0.042 1 2 cbr 210 ------- 6 1.0 2.0 45 45
+ 0.042112 1 2 cbr 210 ------- 6 1.0 2.0 188 188
+ 0.042336 1 2 cbr 210 ------- 6 1.0 2.0 189 189
d 0.042336 1 2 cbr 210 ------- 6 1.0 2.0 189 189
+ 0.04256 1 2 cbr 210 ------- 6 1.0 2.0 190 190
d 0.04256 1 2 cbr 210 ------- 6 1.0 2.0 190 190
+ 0.042784 1 2 cbr 210 ------- 6 1.0 2.0 191 191
d 0.042784 1 2 cbr 210 ------- 6 1.0 2.0 191 191
+ 0.043008 1 2 cbr 210 ------- 6 1.0 2.0 192 192
d 0.043008 1 2 cbr 210 ------- 6 1.0 2.0 192 192
+ 0.043232 1 2 cbr 210 ------- 6 1.0 2.0 193 193
d 0.043232 1 2 cbr 210 ------- 6 1.0 2.0 193 193
+ 0.043456 1 2 cbr 210 ------- 6 1.0 2.0 194 194
d 0.043456 1 2 cbr 210 ------- 6 1.0 2.0 194 194
r 0.04352 1 2 cbr 210 ------- 6 1.0 2.0 13 13
- 0.04368 1 2 cbr 210 ------- 6 1.0 2.0 53 53
+ 0.04368 1 2 cbr 210 ------- 6 1.0 2.0 195 195
+ 0.043904 1 2 cbr 210 ------- 6 1.0 2.0 196 196
d 0.043904 1 2 cbr 210 ------- 6 1.0 2.0 196 196
+ 0.044128 1 2 cbr 210 ------- 6 1.0 2.0 197 197
d 0.044128 1 2 cbr 210 ------- 6 1.0 2.0 197 197
+ 0.044352 1 2 cbr 210 ------- 6 1.0 2.0 198 198
d 0.044352 1 2 cbr 210 ------- 6 1.0 2.0 198 198
+ 0.044576 1 2 cbr 210 ------- 6 1.0 2.0 199 199
d 0.044576 1 2 cbr 210 ------- 6 1.0 2.0 199 199
+ 0.0448 1 2 cbr 210 ------- 6 1.0 2.0 200 200
d 0.0448 1 2 cbr 210 ------- 6 1.0 2.0 200 200
+ 0.045024 1 2 cbr 210 ------- 6 1.0 2.0 201 201
d 0.045024 1 2 cbr 210 ------- 6 1.0 2.0 201 201
r 0.0452 1 2 cbr 210 ------- 6 1.0 2.0 14 14
+ 0.045248 1 2 cbr 210 ------- 6 1.0 2.0 202 202
d 0.045248 1 2 cbr 210 ------- 6 1.0 2.0 202 202
- 0.04536 1 2 cbr 210 ------- 6 1.0 2.0 60 60
+ 0.045472 1 2 cbr 210 ------- 6 1.0 2.0 203 203
+ 0.045696 1 2 cbr 210 ------- 6 1.0 2.0 204 204
d 0.045696 1 2 cbr 210 ------- 6 1.0 2.0 204 204
+ 0.04592 1 2 cbr 210 ------- 6 1.0 2.0 205 205
d 0.04592 1 2 cbr 210 ------- 6 1.0 2.0 205 205
+ 0.046144 1 2 cbr 210 ------- 6 1.0 2.0 206 206
d 0.046144 1 2 cbr 210 ------- 6 1.0 2.0 206 206
+ 0.046368 1 2 cbr 210 ------- 6 1.0 2.0 207 207
d 0.046368 1 2 cbr 210 ------- 6 1.0 2.0 207 207
+ 0.046592 1 2 cbr 210 ------- 6 1.0 2.0 208 208
d 0.046592 1 2 cbr 210 ------- 6 1.0 2.0 208 208
+ 0.046816 1 2 cbr 210 ------- 6 1.0 2.0 209 209
d 0.046816 1 2 cbr 210 ------- 6 1.0 2.0 209 209
r 0.04688 1 2 cbr 210 ------- 6 1.0 2.0 15 15
- 0.04704 1 2 cbr 210 ------- 6 1.0 2.0 68 68
+ 0.04704 1 2 cbr 210 ------- 6 1.0 2.0 210 210
+ 0.047264 1 2 cbr 210 ------- 6 1.0 2.0 211 211
d 0.047264 1 2 cbr 210 ------- 6 1.0 2.0 211 211
+ 0.047488 1 2 cbr 210 ------- 6 1.0 2.0 212 212
d 0.047488 1 2 cbr 210 ------- 6 1.0 2.0 212 212
+ 0.047712 1 2 cbr 210 ------- 6 1.0 2.0 213 213
d 0.047712 1 2 cbr 210 ------- 6 1.0 2.0 213 213
+ 0.047936 1 2 cbr 210 ------- 6 1.0 2.0 214 214
d 0.047936 1 2 cbr 210 ------- 6 1.0 2.0 214 214
+ 0.04816 1 2 cbr 210 ------- 6 1.0 2.0 215 215
d 0.04816 1 2 cbr 210 ------- 6 1.0 2.0 215 215
+ 0.048384 1 2 cbr 210 ------- 6 1.0 2.0 216 216
d 0.048384 1 2 cbr 210 ------- 6 1.0 2.0 216 216
r 0.04856 1 2 cbr 210 ------- 6 1.0 2.0 16 16
+ 0.048608 1 2 cbr 210 ------- 6 1.0 2.0 217 217
d 0.048608 1 2 cbr 210 ------- 6 1.0 2.0 217 217
- 0.04872 1 2 cbr 210 ------- 6 1.0 2.0 76 76
+ 0.048832 1 2 cbr 210 ------- 6 1.0 2.0 218 218
+ 0.049056 1 2 cbr 210 ------- 6 1.0 2.0 219 219
d 0.049056 1 2 cbr 210 ------- 6 1.0 2.0 219 219
+ 0.04928 1 2 cbr 210 ------- 6 1.0 2.0 220 220
d 0.04928 1 2 cbr 210 ------- 6 1.0 2.0 220 220
+ 0.049504 1 2 cbr 210 ------- 6 1.0 2.0 221 221
d 0.049504 1 2 cbr 210 ------- 6 1.0 2.0 221 221
+ 0.049728 1 2 cbr 210 ------- 6 1.0 2.0 222 222
d 0.049728 1 2 cbr 210 ------- 6 1.0 2.0 222 222
+ 0.049952 1 2 cbr 210 ------- 6 1.0 2.0 223 223
d 0.049952 1 2 cbr 210 ------- 6 1.0 2.0 223 223
+ 0.050176 1 2 cbr 210 ------- 6 1.0 2.0 224 224
d 0.050176 1 2 cbr 210 ------- 6 1.0 2.0 224 224
r 0.05024 1 2 cbr 210 ------- 6 1.0 2.0 17 17
- 0.0504 1 2 cbr 210 ------- 6 1.0 2.0 83 83
+ 0.0504 1 2 cbr 210 ------- 6 1.0 2.0 225 225
+ 0.050624 1 2 cbr 210 ------- 6 1.0 2.0 226 226
d 0.050624 1 2 cbr 210 ------- 6 1.0 2.0 226 226
+ 0.050848 1 2 cbr 210 ------- 6 1.0 2.0 227 227
d 0.050848 1 2 cbr 210 ------- 6 1.0 2.0 227 227
+ 0.051072 1 2 cbr 210 ------- 6 1.0 2.0 228 228
d 0.051072 1 2 cbr 210 ------- 6 1.0 2.0 228 228
+ 0.051296 1 2 cbr 210 ------- 6 1.0 2.0 229 229
d 0.051296 1 2 cbr 210 ------- 6 1.0 2.0 229 229
+ 0.05152 1 2 cbr 210 ------- 6 1.0 2.0 230 230
d 0.05152 1 2 cbr 210 ------- 6 1.0 2.0 230 230
+ 0.051744 1 2 cbr 210 ------- 6 1.0 2.0 231 231
d 0.051744 1 2 cbr 210 ------- 6 1.0 2.0 231 231
r 0.05192 1 2 cbr 210 ------- 6 1.0 2.0 18 18
+ 0.051968 1 2 cbr 210 ------- 6 1.0 2.0 232 232
d 0.051968 1 2 cbr 210 ------- 6 1.0 2.0 232 232
- 0.05208 1 2 cbr 210 ------- 6 1.0 2.0 91 91
+ 0.052192 1 2 cbr 210 ------- 6 1.0 2.0 233 233
+ 0.052416 1 2 cbr 210 ------- 6 1.0 2.0 234 234
d 0.052416 1 2 cbr 210 ------- 6 1.0 2.0 234 234
+ 0.05264 1 2 cbr 210 ------- 6 1.0 2.0 235 235
d 0.05264 1 2 cbr 210 ------- 6 1.0 2.0 235 235
+ 0.052864 1 2 cbr 210 ------- 6 1.0 2.0 236 236
d 0.052864 1 2 cbr 210 ------- 6 1.0 2.0 236 236
+ 0.053088 1 2 cbr 210 ------- 6 1.0 2.0 237 237
d 0.053088 1 2 cbr 210 ------- 6 1.0 2.0 237 237
+ 0.053312 1 2 cbr 210 ------- 6 1.0 2.0 238 238
d 0.053312 1 2 cbr 210 ------- 6 1.0 2.0 238 238
+ 0.053536 1 2 cbr 210 ------- 6 1.0 2.0 239 239
d 0.053536 1 2 cbr 210 ------- 6 1.0 2.0 239 239
r 0.0536 1 2 cbr 210 ------- 6 1.0 2.0 19 19
- 0.05376 1 2 cbr 210 ------- 6 1.0 2.0 98 98
+ 0.05376 1 2 cbr 210 ------- 6 1.0 2.0 240 240
+ 0.053984 1 2 cbr 210 ------- 6 1.0 2.0 241 241
d 0.053984 1 2 cbr 210 ------- 6 1.0 2.0 241 241
+ 0.054208 1 2 cbr 210 ------- 6 1.0 2.0 242 242
d 0.054208 1 2 cbr 210 ------- 6 1.0 2.0 242 242
+ 0.054432 1 2 cbr 210 ------- 6 1.0 2.0 243 243
d 0.054432 1 2 cbr 210 ------- 6 1.0 2.0 243 243
+ 0.054656 1 2 cbr 210 ------- 6 1.0 2.0 244 244
d 0.054656 1 2 cbr 210 ------- 6 1.0 2.0 244 244
+ 0.05488 1 2 cbr 210 ------- 6 1.0 2.0 245 245
d 0.05488 1 2 cbr 210 ------- 6 1.0 2.0 245 245
+ 0.055104 1 2 cbr 210 ------- 6 1.0 2.0 246 246
d 0.055104 1 2 cbr 210 ------- 6 1.0 2.0 246 246
r 0.05528 1 2 cbr 210 ------- 6 1.0 2.0 20 20
+ 0.055328 1 2 cbr 210 ------- 6 1.0 2.0 247 247
d 0.055328 1 2 cbr 210 ------- 6 1.0 2.0 247 247
- 0.05544 1 2 cbr 210 ------- 6 1.0 2.0 106 106
+ 0.055552 1 2 cbr 210 ------- 6 1.0 2.0 248 248
+ 0.055776 1 2 cbr 210 ------- 6 1.0 2.0 249 249
d 0.055776 1 2 cbr 210 ------- 6 1.0 2.0 249 249
+ 0.056 1 2 cbr 210 ------- 6 1.0 2.0 250 250
d 0.056 1 2 cbr 210 ------- 6 1.0 2.0 250 250
+ 0.056224 1 2 cbr 210 ------- 6 1.0 2.0 251 251
d 0.056224 1 2 cbr 210 ------- 6 1.0 2.0 251 251
+ 0.056448 1 2 cbr 210 ------- 6 1.0 2.0 252 252
d 0.056448 1 2 cbr 210 ------- 6 1.0 2.0 252 252
+ 0.056672 1 2 cbr 210 ------- 6 1.0 2.0 253 253
d 0.056672 1 2 cbr 210 ------- 6 1.0 2.0 253 253
+ 0.056896 1 2 cbr 210 ------- 6 1.0 2.0 254 254
d 0.056896 1 2 cbr 210 ------- 6 1.0 2.0 254 254
r 0.05696 1 2 cbr 210 ------- 6 1.0 2.0 21 21
- 0.05712 1 2 cbr 210 ------- 6 1.0 2.0 113 113
+ 0.05712 1 2 cbr 210 ------- 6 1.0 2.0 255 255
+ 0.057344 1 2 cbr 210 ------- 6 1.0 2.0 256 256
d 0.057344 1 2 cbr 210 ------- 6 1.0 2.0 256 256
+ 0.057568 1 2 cbr 210 ------- 6 1.0 2.0 257 257
d 0.057568 1 2 cbr 210 ------- 6 1.0 2.0 257 257
+ 0.057792 1 2 cbr 210 ------- 6 1.0 2.0 258 258
d 0.057792 1 2 cbr 210 ------- 6 1.0 2.0 258 258
+ 0.058016 1 2 cbr 210 ------- 6 1.0 2.0 259 259
d 0.058016 1 2 cbr 210 ------- 6 1.0 2.0 259 259
+ 0.05824 1 2 cbr 210 ------- 6 1.0 2.0 260 260
d 0.05824 1 2 cbr 210 ------- 6 1.0 2.0 260 260
+ 0.058464 1 2 cbr 210 ------- 6 1.0 2.0 261 261
d 0.058464 1 2 cbr 210 ------- 6 1.0 2.0 261 261
r 0.05864 1 2 cbr 210 ------- 6 1.0 2.0 23 23
+ 0.058688 1 2 cbr 210 ------- 6 1.0 2.0 262 262
d 0.058688 1 2 cbr 210 ------- 6 1.0 2.0 262 262
- 0.0588 1 2 cbr 210 ------- 6 1.0 2.0 121 121
+ 0.058912 1 2 cbr 210 ------- 6 1.0 2.0 263 263
+ 0.059136 1 2 cbr 210 ------- 6 1.0 2.0 264 264
d 0.059136 1 2 cbr 210 ------- 6 1.0 2.0 264 264
+ 0.05936 1 2 cbr 210 ------- 6 1.0 2.0 265 265
d 0.05936 1 2 cbr 210 ------- 6 1.0 2.0 265 265
+ 0.059584 1 2 cbr 210 ------- 6 1.0 2.0 266 266
d 0.059584 1 2 cbr 210 ------- 6 1.0 2.0 266 266
+ 0.059808 1 2 cbr 210 ------- 6 1.0 2.0 267 267
d 0.059808 1 2 cbr 210 ------- 6 1.0 2.0 267 267
+ 0.060032 1 2 cbr 210 ------- 6 1.0 2.0 268 268
d 0.060032 1 2 cbr 210 ------- 6 1.0 2.0 268 268
+ 0.060256 1 2 cbr 210 ------- 6 1.0 2.0 269 269
d 0.060256 1 2 cbr 210 ------- 6 1.0 2.0 269 269
r 0.06032 1 2 cbr 210 ------- 6 1.0 2.0 30 30
- 0.06048 1 2 cbr 210 ------- 6 1.0 2.0 128 128
+ 0.06048 1 2 cbr 210 ------- 6 1.0 2.0 270 270
+ 0.060704 1 2 cbr 210 ------- 6 1.0 2.0 271 271
d 0.060704 1 2 cbr 210 ------- 6 1.0 2.0 271 271
+ 0.060928 1 2 cbr 210 ------- 6 1.0 2.0 272 272
d 0.060928 1 2 cbr 210 ------- 6 1.0 2.0 272 272
+ 0.061152 1 2 cbr 210 ------- 6 1.0 2.0 273 273
d 0.061152 1 2 cbr 210 ------- 6 1.0 2.0 273 273
+ 0.061376 1 2 cbr 210 ------- 6 1.0 2.0 274 274
d 0.061376 1 2 cbr 210 ------- 6 1.0 2.0 274 274
+ 0.0616 1 2 cbr 210 ------- 6 1.0 2.0 275 275
d 0.0616 1 2 cbr 210 ------- 6 1.0 2.0 275 275
+ 0.061824 1 2 cbr 210 ------- 6 1.0 2.0 276 276
d 0.061824 1 2 cbr 210 ------- 6 1.0 2.0 276 276
r 0.062 1 2 cbr 210 ------- 6 1.0 2.0 38 38
+ 0.062048 1 2 cbr 210 ------- 6 1.0 2.0 277 277
d 0.062048 1 2 cbr 210 ------- 6 1.0 2.0 277 277
- 0.06216 1 2 cbr 210 ------- 6 1.0 2.0 136 136
+ 0.062272 1 2 cbr 210 ------- 6 1.0 2.0 278 278
+ 0.062496 1 2 cbr 210 ------- 6 1.0 2.0 279 279
d 0.062496 1 2 cbr 210 ------- 6 1.0 2.0 279 279
+ 0.06272 1 2 cbr 210 ------- 6 1.0 2.0 280 280
d 0.06272 1 2 cbr 210 ------- 6 1.0 2.0 280 280
+ 0.062944 1 2 cbr 210 ------- 6 1.0 2.0 281 281
d 0.062944 1 2 cbr 210 ------- 6 1.0 2.0 281 281
+ 0.063168 1 2 cbr 210 ------- 6 1.0 2.0 282 282
d 0.063168 1 2 cbr 210 ------- 6 1.0 2.0 282 282
+ 0.063392 1 2 cbr 210 ------- 6 1.0 2.0 283 283
d 0.063392 1 2 cbr 210 ------- 6 1.0 2.0 283 283
+ 0.063616 1 2 cbr 210 ------- 6 1.0 2.0 284 284
d 0.063616 1 2 cbr 210 ------- 6 1.0 2.0 284 284
r 0.06368 1 2 cbr 210 ------- 6 1.0 2.0 45 45
- 0.06384 1 2 cbr 210 ------- 6 1.0 2.0 143 143
+ 0.06384 1 2 cbr 210 ------- 6 1.0 2.0 285 285
+ 0.064064 1 2 cbr 210 ------- 6 1.0 2.0 286 286
d 0.064064 1 2 cbr 210 ------- 6 1.0 2.0 286 286
+ 0.064288 1 2 cbr 210 ------- 6 1.0 2.0 287 287
d 0.064288 1 2 cbr 210 ------- 6 1.0 2.0 287 287
+ 0.064512 1 2 cbr 210 ------- 6 1.0 2.0 288 288
d 0.064512 1 2 cbr 210 ------- 6 1.0 2.0 288 288
+ 0.064736 1 2 cbr 210 ------- 6 1.0 2.0 289 289
d 0.064736 1 2 cbr 210 ------- 6 1.0 2.0 289 289
+ 0.06496 1 2 cbr 210 ------- 6 1.0 2.0 290 290
d 0.06496 1 2 cbr 210 ------- 6 1.0 2.0 290 290
+ 0.065184 1 2 cbr 210 ------- 6 1.0 2.0 291 291
d 0.065184 1 2 cbr 210 ------- 6 1.0 2.0 291 291
r 0.06536 1 2 cbr 210 ------- 6 1.0 2.0 53 53
+ 0.065408 1 2 cbr 210 ------- 6 1.0 2.0 292 292
d 0.065408 1 2 cbr 210 ------- 6 1.0 2.0 292 292
- 0.06552 1 2 cbr 210 ------- 6 1.0 2.0 151 151
+ 0.065632 1 2 cbr 210 ------- 6 1.0 2.0 293 293
+ 0.065856 1 2 cbr 210 ------- 6 1.0 2.0 294 294
d 0.065856 1 2 cbr 210 ------- 6 1.0 2.0 294 294
+ 0.06608 1 2 cbr 210 ------- 6 1.0 2.0 295 295
d 0.06608 1 2 cbr 210 ------- 6 1.0 2.0 295 295
+ 0.066304 1 2 cbr 210 ------- 6 1.0 2.0 296 296
d 0.066304 1 2 cbr 210 ------- 6 1.0 2.0 296 296
+ 0.066528 1 2 cbr 210 ------- 6 1.0 2.0 297 297
d 0.066528 1 2 cbr 210 ------- 6 1.0 2.0 297 297
+ 0.066752 1 2 cbr 210 ------- 6 1.0 2.0 298 298
d 0.066752 1 2 cbr 210 ------- 6 1.0 2.0 298 298
+ 0.066976 1 2 cbr 210 ------- 6 1.0 2.0 299 299
d 0.066976 1 2 cbr 210 ------- 6 1.0 2.0 299 299
r 0.06704 1 2 cbr 210 ------- 6 1.0 2.0 60 60
- 0.0672 1 2 cbr 210 ------- 6 1.0 2.0 158 158
+ 0.0672 1 2 cbr 210 ------- 6 1.0 2.0 300 300
+ 0.067424 1 2 cbr 210 ------- 6 1.0 2.0 301 301
d 0.067424 1 2 cbr 210 ------- 6 1.0 2.0 301 301
+ 0.067648 1 2 cbr 210 ------- 6 1.0 2.0 302 302
d 0.067648 1 2 cbr 210 ------- 6 1.0 2.0 302 302
+ 0.067872 1 2 cbr 210 ------- 6 1.0 2.0 303 303
d 0.067872 1 2 cbr 210 ------- 6 1.0 2.0 303 303
+ 0.068096 1 2 cbr 210 ------- 6 1.0 2.0 304 304
d 0.068096 1 2 cbr 210 ------- 6 1.0 2.0 304 304
+ 0.06832 1 2 cbr 210 ------- 6 1.0 2.0 305 305
d 0.06832 1 2 cbr 210 ------- 6 1.0 2.0 305 305
+ 0.068544 1 2 cbr 210 ------- 6 1.0 2.0 306 306
d 0.068544 1 2 cbr 210 ------- 6 1.0 2.0 306 306
r 0.06872 1 2 cbr 210 ------- 6 1.0 2.0 68 68
+ 0.068768 1 2 cbr 210 ------- 6 1.0 2.0 307 307
d 0.068768 1 2 cbr 210 ------- 6 1.0 2.0 307 307
- 0.06888 1 2 cbr 210 ------- 6 1.0 2.0 166 166