+ 0 1 2 cbr 210 ------- 6 1.0 2.0 0 0
- 0 1 2 cbr 210 ------- 6 1.0 2.0 0 0
+ 0.000305 1 2 cbr 210 ------- 6 1.0 2.0 1 1
+ 0.000611 1 2 cbr 210 ------- 6 1.0 2.0 2 2
+ 0.000916 1 2 cbr 210 ------- 6 1.0 2.0 3 3
+ 0.001222 1 2 cbr 210 ------- 6 1.0 2.0 4 4
+ 0.001527 1 2 cbr 210 ------- 6 1.0 2.0 5 5
- 0.00168 1 2 cbr 210 ------- 6 1.0 2.0 1 1
+ 0.001833 1 2 cbr 210 ------- 6 1.0 2.0 6 6
+ 0.002138 1 2 cbr 210 ------- 6 1.0 2.0 7 7
+ 0.002444 1 2 cbr 210 ------- 6 1.0 2.0 8 8
+ 0.002749 1 2 cbr 210 ------- 6 1.0 2.0 9 9
+ 0.003055 1 2 cbr 210 ------- 6 1.0 2.0 10 10
+ 0.00336 1 2 cbr 210 ------- 6 1.0 2.0 11 11
- 0.00336 1 2 cbr 210 ------- 6 1.0 2.0 2 2
+ 0.003665 1 2 cbr 210 ------- 6 1.0 2.0 12 12
+ 0.003971 1 2 cbr 210 ------- 6 1.0 2.0 13 13
+ 0.004276 1 2 cbr 210 ------- 6 1.0 2.0 14 14
+ 0.004582 1 2 cbr 210 ------- 6 1.0 2.0 15 15
+ 0.004887 1 2 cbr 210 ------- 6 1.0 2.0 16 16
- 0.00504 1 2 cbr 210 ------- 6 1.0 2.0 3 3
+ 0.005193 1 2 cbr 210 ------- 6 1.0 2.0 17 17
+ 0.005498 1 2 cbr 210 ------- 6 1.0 2.0 18 18
+ 0.005804 1 2 cbr 210 ------- 6 1.0 2.0 19 19
+ 0.006109 1 2 cbr 210 ------- 6 1.0 2.0 20 20
+ 0.006415 1 2 cbr 210 ------- 6 1.0 2.0 21 21
+ 0.00672 1 2 cbr 210 ------- 6 1.0 2.0 22 22
- 0.00672 1 2 cbr 210 ------- 6 1.0 2.0 4 4
+ 0.007025 1 2 cbr 210 ------- 6 1.0 2.0 23 23
+ 0.007331 1 2 cbr 210 ------- 6 1.0 2.0 24 24
d 0.007331 1 2 cbr 210 ------- 6 1.0 2.0 24 24
+ 0.007636 1 2 cbr 210 ------- 6 1.0 2.0 25 25
d 0.007636 1 2 cbr 210 ------- 6 1.0 2.0 25 25
+ 0.007942 1 2 cbr 210 ------- 6 1.0 2.0 26 26
d 0.007942 1 2 cbr 210 ------- 6 1.0 2.0 26 26
+ 0.008247 1 2 cbr 210 ------- 6 1.0 2.0 27 27
d 0.008247 1 2 cbr 210 ------- 6 1.0 2.0 27 27
- 0.0084 1 2 cbr 210 ------- 6 1.0 2.0 5 5
+ 0.008553 1 2 cbr 210 ------- 6 1.0 2.0 28 28
+ 0.008858 1 2 cbr 210 ------- 6 1.0 2.0 29 29
d 0.008858 1 2 cbr 210 ------- 6 1.0 2.0 29 29
+ 0.009164 1 2 cbr 210 ------- 6 1.0 2.0 30 30
d 0.009164 1 2 cbr 210 ------- 6 1.0 2.0 30 30
+ 0.009469 1 2 cbr 210 ------- 6 1.0 2.0 31 31
d 0.009469 1 2 cbr 210 ------- 6 1.0 2.0 31 31
+ 0.009775 1 2 cbr 210 ------- 6 1.0 2.0 32 32
d 0.009775 1 2 cbr 210 ------- 6 1.0 2.0 32 32
- 0.01008 1 2 cbr 210 ------- 6 1.0 2.0 6 6
+ 0.01008 1 2 cbr 210 ------- 6 1.0 2.0 33 33
+ 0.010385 1 2 cbr 210 ------- 6 1.0 2.0 34 34
d 0.010385 1 2 cbr 210 ------- 6 1.0 2.0 34 34
+ 0.010691 1 2 cbr 210 ------- 6 1.0 2.0 35 35
d 0.010691 1 2 cbr 210 ------- 6 1.0 2.0 35 35
+ 0.010996 1 2 cbr 210 ------- 6 1.0 2.0 36 36
d 0.010996 1 2 cbr 210 ------- 6 1.0 2.0 36 36
+ 0.011302 1 2 cbr 210 ------- 6 1.0 2.0 37 37
d 0.011302 1 2 cbr 210 ------- 6 1.0 2.0 37 37
+ 0.011607 1 2 cbr 210 ------- 6 1.0 2.0 38 38
d 0.011607 1 2 cbr 210 ------- 6 1.0 2.0 38 38
- 0.01176 1 2 cbr 210 ------- 6 1.0 2.0 7 7
+ 0.011913 1 2 cbr 210 ------- 6 1.0 2.0 39 39
+ 0.012218 1 2 cbr 210 ------- 6 1.0 2.0 40 40
d 0.012218 1 2 cbr 210 ------- 6 1.0 2.0 40 40
+ 0.012524 1 2 cbr 210 ------- 6 1.0 2.0 41 41
d 0.012524 1 2 cbr 210 ------- 6 1.0 2.0 41 41
+ 0.012829 1 2 cbr 210 ------- 6 1.0 2.0 42 42
d 0.012829 1 2 cbr 210 ------- 6 1.0 2.0 42 42
+ 0.013135 1 2 cbr 210 ------- 6 1.0 2.0 43 43
d 0.013135 1 2 cbr 210 ------- 6 1.0 2.0 43 43
- 0.01344 1 2 cbr 210 ------- 6 1.0 2.0 8 8
+ 0.01344 1 2 cbr 210 ------- 6 1.0 2.0 44 44
+ 0.013745 1 2 cbr 210 ------- 6 1.0 2.0 45 45
d 0.013745 1 2 cbr 210 ------- 6 1.0 2.0 45 45
+ 0.014051 1 2 cbr 210 ------- 6 1.0 2.0 46 46
d 0.014051 1 2 cbr 210 ------- 6 1.0 2.0 46 46
+ 0.014356 1 2 cbr 210 ------- 6 1.0 2.0 47 47
d 0.014356 1 2 cbr 210 ------- 6 1.0 2.0 47 47
+ 0.014662 1 2 cbr 210 ------- 6 1.0 2.0 48 48
d 0.014662 1 2 cbr 210 ------- 6 1.0 2.0 48 48
+ 0.014967 1 2 cbr 210 ------- 6 1.0 2.0 49 49
d 0.014967 1 2 cbr 210 ------- 6 1.0 2.0 49 49
- 0.01512 1 2 cbr 210 ------- 6 1.0 2.0 9 9
+ 0.015273 1 2 cbr 210 ------- 6 1.0 2.0 50 50
+ 0.015578 1 2 cbr 210 ------- 6 1.0 2.0 51 51
d 0.015578 1 2 cbr 210 ------- 6 1.0 2.0 51 51
+ 0.015884 1 2 cbr 210 ------- 6 1.0 2.0 52 52
d 0.015884 1 2 cbr 210 ------- 6 1.0 2.0 52 52
+ 0.016189 1 2 cbr 210 ------- 6 1.0 2.0 53 53
d 0.016189 1 2 cbr 210 ------- 6 1.0 2.0 53 53
+ 0.016495 1 2 cbr 210 ------- 6 1.0 2.0 54 54
d 0.016495 1 2 cbr 210 ------- 6 1.0 2.0 54 54
- 0.0168 1 2 cbr 210 ------- 6 1.0 2.0 10 10
+ 0.0168 1 2 cbr 210 ------- 6 1.0 2.0 55 55
+ 0.017105 1 2 cbr 210 ------- 6 1.0 2.0 56 56
d 0.017105 1 2 cbr 210 ------- 6 1.0 2.0 56 56
+ 0.017411 1 2 cbr 210 ------- 6 1.0 2.0 57 57
d 0.017411 1 2 cbr 210 ------- 6 1.0 2.0 57 57
+ 0.017716 1 2 cbr 210 ------- 6 1.0 2.0 58 58
d 0.017716 1 2 cbr 210 ------- 6 1.0 2.0 58 58
+ 0.018022 1 2 cbr 210 ------- 6 1.0 2.0 59 59
d 0.018022 1 2 cbr 210 ------- 6 1.0 2.0 59 59
+ 0.018327 1 2 cbr 210 ------- 6 1.0 2.0 60 60
d 0.018327 1 2 cbr 210 ------- 6 1.0 2.0 60 60
- 0.01848 1 2 cbr 210 ------- 6 1.0 2.0 11 11
+ 0.018633 1 2 cbr 210 ------- 6 1.0 2.0 61 61
+ 0.018938 1 2 cbr 210 ------- 6 1.0 2.0 62 62
d 0.018938 1 2 cbr 210 ------- 6 1.0 2.0 62 62
+ 0.019244 1 2 cbr 210 ------- 6 1.0 2.0 63 63
d 0.019244 1 2 cbr 210 ------- 6 1.0 2.0 63 63
+ 0.019549 1 2 cbr 210 ------- 6 1.0 2.0 64 64
d 0.019549 1 2 cbr 210 ------- 6 1.0 2.0 64 64
+ 0.019855 1 2 cbr 210 ------- 6 1.0 2.0 65 65
d 0.019855 1 2 cbr 210 ------- 6 1.0 2.0 65 65
- 0.02016 1 2 cbr 210 ------- 6 1.0 2.0 12 12
+ 0.02016 1 2 cbr 210 ------- 6 1.0 2.0 66 66
+ 0.020465 1 2 cbr 210 ------- 6 1.0 2.0 67 67
d 0.020465 1 2 cbr 210 ------- 6 1.0 2.0 67 67
+ 0.020771 1 2 cbr 210 ------- 6 1.0 2.0 68 68
d 0.020771 1 2 cbr 210 ------- 6 1.0 2.0 68 68
+ 0.021076 1 2 cbr 210 ------- 6 1.0 2.0 69 69
d 0.021076 1 2 cbr 210 ------- 6 1.0 2.0 69 69
+ 0.021382 1 2 cbr 210 ------- 6 1.0 2.0 70 70
d 0.021382 1 2 cbr 210 ------- 6 1.0 2.0 70 70
r 0.02168 1 2 cbr 210 ------- 6 1.0 2.0 0 0
+ 0.021687 1 2 cbr 210 ------- 6 1.0 2.0 71 71
d 0.021687 1 2 cbr 210 ------- 6 1.0 2.0 71 71
- 0.02184 1 2 cbr 210 ------- 6 1.0 2.0 13 13
+ 0.021993 1 2 cbr 210 ------- 6 1.0 2.0 72 72
+ 0.022298 1 2 cbr 210 ------- 6 1.0 2.0 73 73
d 0.022298 1 2 cbr 210 ------- 6 1.0 2.0 73 73
+ 0.022604 1 2 cbr 210 ------- 6 1.0 2.0 74 74
d 0.022604 1 2 cbr 210 ------- 6 1.0 2.0 74 74
+ 0.022909 1 2 cbr 210 ------- 6 1.0 2.0 75 75
d 0.022909 1 2 cbr 210 ------- 6 1.0 2.0 75 75
+ 0.023215 1 2 cbr 210 ------- 6 1.0 2.0 76 76
d 0.023215 1 2 cbr 210 ------- 6 1.0 2.0 76 76
r 0.02336 1 2 cbr 210 ------- 6 1.0 2.0 1 1
- 0.02352 1 2 cbr 210 ------- 6 1.0 2.0 14 14
+ 0.02352 1 2 cbr 210 ------- 6 1.0 2.0 77 77
+ 0.023825 1 2 cbr 210 ------- 6 1.0 2.0 78 78
d 0.023825 1 2 cbr 210 ------- 6 1.0 2.0 78 78
+ 0.024131 1 2 cbr 210 ------- 6 1.0 2.0 79 79
d 0.024131 1 2 cbr 210 ------- 6 1.0 2.0 79 79
+ 0.024436 1 2 cbr 210 ------- 6 1.0 2.0 80 80
d 0.024436 1 2 cbr 210 ------- 6 1.0 2.0 80 80
+ 0.024742 1 2 cbr 210 ------- 6 1.0 2.0 81 81
d 0.024742 1 2 cbr 210 ------- 6 1.0 2.0 81 81
r 0.02504 1 2 cbr 210 ------- 6 1.0 2.0 2 2
+ 0.025047 1 2 cbr 210 ------- 6 1.0 2.0 82 82
d 0.025047 1 2 cbr 210 ------- 6 1.0 2.0 82 82
- 0.0252 1 2 cbr 210 ------- 6 1.0 2.0 15 15
+ 0.025353 1 2 cbr 210 ------- 6 1.0 2.0 83 83
+ 0.025658 1 2 cbr 210 ------- 6 1.0 2.0 84 84
d 0.025658 1 2 cbr 210 ------- 6 1.0 2.0 84 84
+ 0.025964 1 2 cbr 210 ------- 6 1.0 2.0 85 85
d 0.025964 1 2 cbr 210 ------- 6 1.0 2.0 85 85
+ 0.026269 1 2 cbr 210 ------- 6 1.0 2.0 86 86
d 0.026269 1 2 cbr 210 ------- 6 1.0 2.0 86 86
+ 0.026575 1 2 cbr 210 ------- 6 1.0 2.0 87 87
d 0.026575 1 2 cbr 210 ------- 6 1.0 2.0 87 87
r 0.02672 1 2 cbr 210 ------- 6 1.0 2.0 3 3
- 0.02688 1 2 cbr 210 ------- 6 1.0 2.0 16 16
+ 0.02688 1 2 cbr 210 ------- 6 1.0 2.0 88 88
+ 0.027185 1 2 cbr 210 ------- 6 1.0 2.0 89 89
d 0.027185 1 2 cbr 210 ------- 6 1.0 2.0 89 89
+ 0.027491 1 2 cbr 210 ------- 6 1.0 2.0 90 90
d 0.027491 1 2 cbr 210 ------- 6 1.0 2.0 90 90
+ 0.027796 1 2 cbr 210 ------- 6 1.0 2.0 91 91
d 0.027796 1 2 cbr 210 ------- 6 1.0 2.0 91 91
+ 0.028102 1 2 cbr 210 ------- 6 1.0 2.0 92 92
d 0.028102 1 2 cbr 210 ------- 6 1.0 2.0 92 92
r 0.0284 1 2 cbr 210 ------- 6 1.0 2.0 4 4
+ 0.028407 1 2 cbr 210 ------- 6 1.0 2.0 93 93
d 0.028407 1 2 cbr 210 ------- 6 1.0 2.0 93 93
- 0.02856 1 2 cbr 210 ------- 6 1.0 2.0 17 17
+ 0.028713 1 2 cbr 210 ------- 6 1.0 2.0 94 94
+ 0.029018 1 2 cbr 210 ------- 6 1.0 2.0 95 95
d 0.029018 1 2 cbr 210 ------- 6 1.0 2.0 95 95
+ 0.029324 1 2 cbr 210 ------- 6 1.0 2.0 96 96
d 0.029324 1 2 cbr 210 ------- 6 1.0 2.0 96 96
+ 0.029629 1 2 cbr 210 ------- 6 1.0 2.0 97 97
d 0.029629 1 2 cbr 210 ------- 6 1.0 2.0 97 97
+ 0.029935 1 2 cbr 210 ------- 6 1.0 2.0 98 98
d 0.029935 1 2 cbr 210 ------- 6 1.0 2.0 98 98
r 0.03008 1 2 cbr 210 ------- 6 1.0 2.0 5 5
- 0.03024 1 2 cbr 210 ------- 6 1.0 2.0 18 18
+ 0.03024 1 2 cbr 210 ------- 6 1.0 2.0 99 99
+ 0.030545 1 2 cbr 210 ------- 6 1.0 2.0 100 100
d 0.030545 1 2 cbr 210 ------- 6 1.0 2.0 100 100
+ 0.030851 1 2 cbr 210 ------- 6 1.0 2.0 101 101
d 0.030851 1 2 cbr 210 ------- 6 1.0 2.0 101 101
+ 0.031156 1 2 cbr 210 ------- 6 1.0 2.0 102 102
d 0.031156 1 2 cbr 210 ------- 6 1.0 2.0 102 102
+ 0.031462 1 2 cbr 210 ------- 6 1.0 2.0 103 103
d 0.031462 1 2 cbr 210 ------- 6 1.0 2.0 103 103
r 0.03176 1 2 cbr 210 ------- 6 1.0 2.0 6 6
+ 0.031767 1 2 cbr 210 ------- 6 1.0 2.0 104 104
d 0.031767 1 2 cbr 210 ------- 6 1.0 2.0 104 104
- 0.03192 1 2 cbr 210 ------- 6 1.0 2.0 19 19
+ 0.032073 1 2 cbr 210 ------- 6 1.0 2.0 105 105
+ 0.032378 1 2 cbr 210 ------- 6 1.0 2.0 106 106
d 0.032378 1 2 cbr 210 ------- 6 1.0 2.0 106 106
+ 0.032684 1 2 cbr 210 ------- 6 1.0 2.0 107 107
d 0.032684 1 2 cbr 210 ------- 6 1.0 2.0 107 107
+ 0.032989 1 2 cbr 210 ------- 6 1.0 2.0 108 108
d 0.032989 1 2 cbr 210 ------- 6 1.0 2.0 108 108
+ 0.033295 1 2 cbr 210 ------- 6 1.0 2.0 109 109
d 0.033295 1 2 cbr 210 ------- 6 1.0 2.0 109 109
r 0.03344 1 2 cbr 210 ------- 6 1.0 2.0 7 7
- 0.0336 1 2 cbr 210 ------- 6 1.0 2.0 20 20
+ 0.0336 1 2 cbr 210 ------- 6 1.0 2.0 110 110
+ 0.033905 1 2 cbr 210 ------- 6 1.0 2.0 111 111
d 0.033905 1 2 cbr 210 ------- 6 1.0 2.0 111 111
+ 0.034211 1 2 cbr 210 ------- 6 1.0 2.0 112 112
d 0.034211 1 2 cbr 210 ------- 6 1.0 2.0 112 112
+ 0.034516 1 2 cbr 210 ------- 6 1.0 2.0 113 113
d 0.034516 1 2 cbr 210 ------- 6 1.0 2.0 113 113
+ 0.034822 1 2 cbr 210 ------- 6 1.0 2.0 114 114
d 0.034822 1 2 cbr 210 ------- 6 1.0 2.0 114 114
r 0.03512 1 2 cbr 210 ------- 6 1.0 2.0 8 8
+ 0.035127 1 2 cbr 210 ------- 6 1.0 2.0 115 115
d 0.035127 1 2 cbr 210 ------- 6 1.0 2.0 115 115
- 0.03528 1 2 cbr 210 ------- 6 1.0 2.0 21 21
+ 0.035433 1 2 cbr 210 ------- 6 1.0 2.0 116 116
+ 0.035738 1 2 cbr 210 ------- 6 1.0 2.0 117 117
d 0.035738 1 2 cbr 210 ------- 6 1.0 2.0 117 117
+ 0.036044 1 2 cbr 210 ------- 6 1.0 2.0 118 118
d 0.036044 1 2 cbr 210 ------- 6 1.0 2.0 118 118
+ 0.036349 1 2 cbr 210 ------- 6 1.0 2.0 119 119
d 0.036349 1 2 cbr 210 ------- 6 1.0 2.0 119 119
+ 0.036655 1 2 cbr 210 ------- 6 1.0 2.0 120 120
d 0.036655 1 2 cbr 210 ------- 6 1.0 2.0 120 120
r 0.0368 1 2 cbr 210 ------- 6 1.0 2.0 9 9
- 0.03696 1 2 cbr 210 ------- 6 1.0 2.0 22 22
+ 0.03696 1 2 cbr 210 ------- 6 1.0 2.0 121 121
+ 0.037265 1 2 cbr 210 ------- 6 1.0 2.0 122 122
d 0.037265 1 2 cbr 210 ------- 6 1.0 2.0 122 122
+ 0.037571 1 2 cbr 210 ------- 6 1.0 2.0 123 123
d 0.037571 1 2 cbr 210 ------- 6 1.0 2.0 123 123
+ 0.037876 1 2 cbr 210 ------- 6 1.0 2.0 124 124
d 0.037876 1 2 cbr 210 ------- 6 1.0 2.0 124 124
+ 0.038182 1 2 cbr 210 ------- 6 1.0 2.0 125 125
d 0.038182 1 2 cbr 210 ------- 6 1.0 2.0 125 125
r 0.03848 1 2 cbr 210 ------- 6 1.0 2.0 10 10
+ 0.038487 1 2 cbr 210 ------- 6 1.0 2.0 126 126
d 0.038487 1 2 cbr 210 ------- 6 1.0 2.0 126 126
- 0.03864 1 2 cbr 210 ------- 6 1.0 2.0 23 23
+ 0.038793 1 2 cbr 210 ------- 6 1.0 2.0 127 127
+ 0.039098 1 2 cbr 210 ------- 6 1.0 2.0 128 128
d 0.039098 1 2 cbr 210 ------- 6 1.0 2.0 128 128
+ 0.039404 1 2 cbr 210 ------- 6 1.0 2.0 129 129
d 0.039404 1 2 cbr 210 ------- 6 1.0 2.0 129 129
+ 0.039709 1 2 cbr 210 ------- 6 1.0 2.0 130 130
d 0.039709 1 2 cbr 210 ------- 6 1.0 2.0 130 130
+ 0.040015 1 2 cbr 210 ------- 6 1.0 2.0 131 131
d 0.040015 1 2 cbr 210 ------- 6 1.0 2.0 131 131
r 0.04016 1 2 cbr 210 ------- 6 1.0 2.0 11 11
- 0.04032 1 2 cbr 210 ------- 6 1.0 2.0 28 28
+ 0.04032 1 2 cbr 210 ------- 6 1.0 2.0 132 132
+ 0.040625 1 2 cbr 210 ------- 6 1.0 2.0 133 133
d 0.040625 1 2 cbr 210 ------- 6 1.0 2.0 133 133
+ 0.040931 1 2 cbr 210 ------- 6 1.0 2.0 134 134
d 0.040931 1 2 cbr 210 ------- 6 1.0 2.0 134 134
+ 0.041236 1 2 cbr 210 ------- 6 1.0 2.0 135 135
d 0.041236 1 2 cbr 210 ------- 6 1.0 2.0 135 135
+ 0.041542 1 2 cbr 210 ------- 6 1.0 2.0 136 136
d 0.041542 1 2 cbr 210 ------- 6 1.0 2.0 136 136
r 0.04184 1 2 cbr 210 ------- 6 1.0 2.0 12 12
+ 0.041847 1 2 cbr 210 ------- 6 1.0 2.0 137 137
d 0.041847 1 2 cbr 210 ------- 6 1.0 2.0 137 137
- 0.042 1 2 cbr 210 ------- 6 1.0 2.0 33 33
+ 0.042153 1 2 cbr 210 ------- 6 1.0 2.0 138 138
+ 0.042458 1 2 cbr 210 ------- 6 1.0 2.0 139 139
d 0.042458 1 2 cbr 210 ------- 6 1.0 2.0 139 139
+ 0.042764 1 2 cbr 210 ------- 6 1.0 2.0 140 140
d 0.042764 1 2 cbr 210 ------- 6 1.0 2.0 140 140
+ 0.043069 1 2 cbr 210 ------- 6 1.0 2.0 141 141
d 0.043069 1 2 cbr 210 ------- 6 1.0 2.0 141 141
+ 0.043375 1 2 cbr 210 ------- 6 1.0 2.0 142 142
d 0.043375 1 2 cbr 210 ------- 6 1.0 2.0 142 142
r 0.04352 1 2 cbr 210 ------- 6 1.0 2.0 13 13
- 0.04368 1 2 cbr 210 ------- 6 1.0 2.0 39 39
+ 0.04368 1 2 cbr 210 ------- 6 1.0 2.0 143 143
+ 0.043985 1 2 cbr 210 ------- 6 1.0 2.0 144 144
d 0.043985 1 2 cbr 210 ------- 6 1.0 2.0 144 144
+ 0.044291 1 2 cbr 210 ------- 6 1.0 2.0 145 145
d 0.044291 1 2 cbr 210 ------- 6 1.0 2.0 145 145
+ 0.044596 1 2 cbr 210 ------- 6 1.0 2.0 146 146
d 0.044596 1 2 cbr 210 ------- 6 1.0 2.0 146 146
+ 0.044902 1 2 cbr 210 ------- 6 1.0 2.0 147 147
d 0.044902 1 2 cbr 210 ------- 6 1.0 2.0 147 147
r 0.0452 1 2 cbr 210 ------- 6 1.0 2.0 14 14
+ 0.045207 1 2 cbr 210 ------- 6 1.0 2.0 148 148
d 0.045207 1 2 cbr 210 ------- 6 1.0 2.0 148 148
- 0.04536 1 2 cbr 210 ------- 6 1.0 2.0 44 44
+ 0.045513 1 2 cbr 210 ------- 6 1.0 2.0 149 149
+ 0.045818 1 2 cbr 210 ------- 6 1.0 2.0 150 150
d 0.045818 1 2 cbr 210 ------- 6 1.0 2.0 150 150
+ 0.046124 1 2 cbr 210 ------- 6 1.0 2.0 151 151
d 0.046124 1 2 cbr 210 ------- 6 1.0 2.0 151 151
+ 0.046429 1 2 cbr 210 ------- 6 1.0 2.0 152 152
d 0.046429 1 2 cbr 210 ------- 6 1.0 2.0 152 152
+ 0.046735 1 2 cbr 210 ------- 6 1.0 2.0 153 153
d 0.046735 1 2 cbr 210 ------- 6 1.0 2.0 153 153
r 0.04688 1 2 cbr 210 ------- 6 1.0 2.0 15 15
- 0.04704 1 2 cbr 210 ------- 6 1.0 2.0 50 50
+ 0.04704 1 2 cbr 210 ------- 6 1.0 2.0 154 154
+ 0.047345 1 2 cbr 210 ------- 6 1.0 2.0 155 155
d 0.047345 1 2 cbr 210 ------- 6 1.0 2.0 155 155
+ 0.047651 1 2 cbr 210 ------- 6 1.0 2.0 156 156
d 0.047651 1 2 cbr 210 ------- 6 1.0 2.0 156 156
+ 0.047956 1 2 cbr 210 ------- 6 1.0 2.0 157 157
d 0.047956 1 2 cbr 210 ------- 6 1.0 2.0 157 157
+ 0.048262 1 2 cbr 210 ------- 6 1.0 2.0 158 158
d 0.048262 1 2 cbr 210 ------- 6 1.0 2.0 158 158
r 0.04856 1 2 cbr 210 ------- 6 1.0 2.0 16 16
+ 0.048567 1 2 cbr 210 ------- 6 1.0 2.0 159 159
d 0.048567 1 2 cbr 210 ------- 6 1.0 2.0 159 159
- 0.04872 1 2 cbr 210 ------- 6 1.0 2.0 55 55
+ 0.048873 1 2 cbr 210 ------- 6 1.0 2.0 160 160
+ 0.049178 1 2 cbr 210 ------- 6 1.0 2.0 161 161
d 0.049178 1 2 cbr 210 ------- 6 1.0 2.0 161 161
+ 0.049484 1 2 cbr 210 ------- 6 1.0 2.0 162 162
d 0.049484 1 2 cbr 210 ------- 6 1.0 2.0 162 162
+ 0.049789 1 2 cbr 210 ------- 6 1.0 2.0 163 163
d 0.049789 1 2 cbr 210 ------- 6 1.0 2.0 163 163
+ 0.050095 1 2 cbr 210 ------- 6 1.0 2.0 164 164
d 0.050095 1 2 cbr 210 ------- 6 1.0 2.0 164 164
r 0.05024 1 2 cbr 210 ------- 6 1.0 2.0 17 17
- 0.0504 1 2 cbr 210 ------- 6 1.0 2.0 61 61
+ 0.0504 1 2 cbr 210 ------- 6 1.0 2.0 165 165
+ 0.050705 1 2 cbr 210 ------- 6 1.0 2.0 166 166
d 0.050705 1 2 cbr 210 ------- 6 1.0 2.0 166 166
+ 0.051011 1 2 cbr 210 ------- 6 1.0 2.0 167 167
d 0.051011 1 2 cbr 210 ------- 6 1.0 2.0 167 167
+ 0.051316 1 2 cbr 210 ------- 6 1.0 2.0 168 168
d 0.051316 1 2 cbr 210 ------- 6 1.0 2.0 168 168
+ 0.051622 1 2 cbr 210 ------- 6 1.0 2.0 169 169
d 0.051622 1 2 cbr 210 ------- 6 1.0 2.0 169 169
r 0.05192 1 2 cbr 210 ------- 6 1.0 2.0 18 18
+ 0.051927 1 2 cbr 210 ------- 6 1.0 2.0 170 170
d 0.051927 1 2 cbr 210 ------- 6 1.0 2.0 170 170
- 0.05208 1 2 cbr 210 ------- 6 1.0 2.0 66 66
+ 0.052233 1 2 cbr 210 ------- 6 1.0 2.0 171 171
+ 0.052538 1 2 cbr 210 ------- 6 1.0 2.0 172 172
d 0.052538 1 2 cbr 210 ------- 6 1.0 2.0 172 172
+ 0.052844 1 2 cbr 210 ------- 6 1.0 2.0 173 173
d 0.052844 1 2 cbr 210 ------- 6 1.0 2.0 173 173
+ 0.053149 1 2 cbr 210 ------- 6 1.0 2.0 174 174
d 0.053149 1 2 cbr 210 ------- 6 1.0 2.0 174 174
+ 0.053455 1 2 cbr 210 ------- 6 1.0 2.0 175 175
d 0.053455 1 2 cbr 210 ------- 6 1.0 2.0 175 175
r 0.0536 1 2 cbr 210 ------- 6 1.0 2.0 19 19
- 0.05376 1 2 cbr 210 ------- 6 1.0 2.0 72 72
+ 0.05376 1 2 cbr 210 ------- 6 1.0 2.0 176 176
+ 0.054065 1 2 cbr 210 ------- 6 1.0 2.0 177 177
d 0.054065 1 2 cbr 210 ------- 6 1.0 2.0 177 177
+ 0.054371 1 2 cbr 210 ------- 6 1.0 2.0 178 178
d 0.054371 1 2 cbr 210 ------- 6 1.0 2.0 178 178
+ 0.054676 1 2 cbr 210 ------- 6 1.0 2.0 179 179
d 0.054676 1 2 cbr 210 ------- 6 1.0 2.0 179 179
+ 0.054982 1 2 cbr 210 ------- 6 1.0 2.0 180 180
d 0.054982 1 2 cbr 210 ------- 6 1.0 2.0 180 180
r 0.05528 1 2 cbr 210 ------- 6 1.0 2.0 20 20
+ 0.055287 1 2 cbr 210 ------- 6 1.0 2.0 181 181
d 0.055287 1 2 cbr 210 ------- 6 1.0 2.0 181 181
- 0.05544 1 2 cbr 210 ------- 6 1.0 2.0 77 77
+ 0.055593 1 2 cbr 210 ------- 6 1.0 2.0 182 182
+ 0.055898 1 2 cbr 210 ------- 6 1.0 2.0 183 183
d 0.055898 1 2 cbr 210 ------- 6 1.0 2.0 183 183
+ 0.056204 1 2 cbr 210 ------- 6 1.0 2.0 184 184
d 0.056204 1 2 cbr 210 ------- 6 1.0 2.0 184 184
+ 0.056509 1 2 cbr 210 ------- 6 1.0 2.0 185 185
d 0.056509 1 2 cbr 210 ------- 6 1.0 2.0 185 185
+ 0.056815 1 2 cbr 210 ------- 6 1.0 2.0 186 186
d 0.056815 1 2 cbr 210 ------- 6 1.0 2.0 186 186
r 0.05696 1 2 cbr 210 ------- 6 1.0 2.0 21 21
- 0.05712 1 2 cbr 210 ------- 6 1.0 2.0 83 83
+ 0.05712 1 2 cbr 210 ------- 6 1.0 2.0 187 187
+ 0.057425 1 2 cbr 210 ------- 6 1.0 2.0 188 188
d 0.057425 1 2 cbr 210 ------- 6 1.0 2.0 188 188
+ 0.057731 1 2 cbr 210 ------- 6 1.0 2.0 189 189
d 0.057731 1 2 cbr 210 ------- 6 1.0 2.0 189 189
+ 0.058036 1 2 cbr 210 ------- 6 1.0 2.0 190 190
d 0.058036 1 2 cbr 210 ------- 6 1.0 2.0 190 190
+ 0.058342 1 2 cbr 210 ------- 6 1.0 2.0 191 191
d 0.058342 1 2 cbr 210 ------- 6 1.0 2.0 191 191
r 0.05864 1 2 cbr 210 ------- 6 1.0 2.0 22 22
+ 0.058647 1 2 cbr 210 ------- 6 1.0 2.0 192 192
d 0.058647 1 2 cbr 210 ------- 6 1.0 2.0 192 192
- 0.0588 1 2 cbr 210 ------- 6 1.0 2.0 88 88
+ 0.058953 1 2 cbr 210 ------- 6 1.0 2.0 193 193
+ 0.059258 1 2 cbr 210 ------- 6 1.0 2.0 194 194
d 0.059258 1 2 cbr 210 ------- 6 1.0 2.0 194 194
+ 0.059564 1 2 cbr 210 ------- 6 1.0 2.0 195 195
d 0.059564 1 2 cbr 210 ------- 6 1.0 2.0 195 195
+ 0.059869 1 2 cbr 210 ------- 6 1.0 2.0 196 196
d 0.059869 1 2 cbr 210 ------- 6 1.0 2.0 196 196
+ 0.060175 1 2 cbr 210 ------- 6 1.0 2.0 197 197
d 0.060175 1 2 cbr 210 ------- 6 1.0 2.0 197 197
r 0.06032 1 2 cbr 210 ------- 6 1.0 2.0 23 23
- 0.06048 1 2 cbr 210 ------- 6 1.0 2.0 94 94
+ 0.06048 1 2 cbr 210 ------- 6 1.0 2.0 198 198
+ 0.060785 1 2 cbr 210 ------- 6 1.0 2.0 199 199
d 0.060785 1 2 cbr 210 ------- 6 1.0 2.0 199 199
+ 0.061091 1 2 cbr 210 ------- 6 1.0 2.0 200 200
d 0.061091 1 2 cbr 210 ------- 6 1.0 2.0 200 200
+ 0.061396 1 2 cbr 210 ------- 6 1.0 2.0 201 201
d 0.061396 1 2 cbr 210 ------- 6 1.0 2.0 201 201
+ 0.061702 1 2 cbr 210 ------- 6 1.0 2.0 202 202
d 0.061702 1 2 cbr 210 ------- 6 1.0 2.0 202 202
r 0.062 1 2 cbr 210 ------- 6 1.0 2.0 28 28
+ 0.062007 1 2 cbr 210 ------- 6 1.0 2.0 203 203
d 0.062007 1 2 cbr 210 ------- 6 1.0 2.0 203 203
- 0.06216 1 2 cbr 210 ------- 6 1.0 2.0 99 99
+ 0.062313 1 2 cbr 210 ------- 6 1.0 2.0 204 204
+ 0.062618 1 2 cbr 210 ------- 6 1.0 2.0 205 205
d 0.062618 1 2 cbr 210 ------- 6 1.0 2.0 205 205
+ 0.062924 1 2 cbr 210 ------- 6 1.0 2.0 206 206
d 0.062924 1 2 cbr 210 ------- 6 1.0 2.0 206 206
+ 0.063229 1 2 cbr 210 ------- 6 1.0 2.0 207 207
d 0.063229 1 2 cbr 210 ------- 6 1.0 2.0 207 207
+ 0.063535 1 2 cbr 210 ------- 6 1.0 2.0 208 208
d 0.063535 1 2 cbr 210 ------- 6 1.0 2.0 208 208
r 0.06368 1 2 cbr 210 ------- 6 1.0 2.0 33 33
- 0.06384 1 2 cbr 210 ------- 6 1.0 2.0 105 105
+ 0.06384 1 2 cbr 210 ------- 6 1.0 2.0 209 209
+ 0.064145 1 2 cbr 210 ------- 6 1.0 2.0 210 210
d 0.064145 1 2 cbr 210 ------- 6 1.0 2.0 210 210
+ 0.064451 1 2 cbr 210 ------- 6 1.0 2.0 211 211
d 0.064451 1 2 cbr 210 ------- 6 1.0 2.0 211 211
+ 0.064756 1 2 cbr 210 ------- 6 1.0 2.0 212 212
d 0.064756 1 2 cbr 210 ------- 6 1.0 2.0 212 212
+ 0.065062 1 2 cbr 210 ------- 6 1.0 2.0 213 213
d 0.065062 1 2 cbr 210 ------- 6 1.0 2.0 213 213
r 0.06536 1 2 cbr 210 ------- 6 1.0 2.0 39 39
+ 0.065367 1 2 cbr 210 ------- 6 1.0 2.0 214 214
d 0.065367 1 2 cbr 210 ------- 6 1.0 2.0 214 214
- 0.06552 1 2 cbr 210 ------- 6 1.0 2.0 110 110
+ 0.065673 1 2 cbr 210 ------- 6 1.0 2.0 215 215
+ 0.065978 1 2 cbr 210 ------- 6 1.0 2.0 216 216
d 0.065978 1 2 cbr 210 ------- 6 1.0 2.0 216 216
+ 0.066284 1 2 cbr 210 ------- 6 1.0 2.0 217 217
d 0.066284 1 2 cbr 210 ------- 6 1.0 2.0 217 217
+ 0.066589 1 2 cbr 210 ------- 6 1.0 2.0 218 218
d 0.066589 1 2 cbr 210 ------- 6 1.0 2.0 218 218
+ 0.066895 1 2 cbr 210 ------- 6 1.0 2.0 219 219
d 0.066895 1 2 cbr 210 ------- 6 1.0 2.0 219 219
r 0.06704 1 2 cbr 210 ------- 6 1.0 2.0 44 44
- 0.0672 1 2 cbr 210 ------- 6 1.0 2.0 116 116
+ 0.0672 1 2 cbr 210 ------- 6 1.0 2.0 220 220
+ 0.067505 1 2 cbr 210 ------- 6 1.0 2.0 221 221
d 0.067505 1 2 cbr 210 ------- 6 1.0 2.0 221 221
+ 0.067811 1 2 cbr 210 ------- 6 1.0 2.0 222 222
d 0.067811 1 2 cbr 210 ------- 6 1.0 2.0 222 222
+ 0.068116 1 2 cbr 210 ------- 6 1.0 2.0 223 223
d 0.068116 1 2 cbr 210 ------- 6 1.0 2.0 223 223
+ 0.068422 1 2 cbr 210 ------- 6 1.0 2.0 224 224
d 0.068422 1 2 cbr 210 ------- 6 1.0 2.0 224 224
r 0.06872 1 2 cbr 210 ------- 6 1.0 2.0 50 50
+ 0.068727 1 2 cbr 210 ------- 6 1.0 2.0 225 225
d 0.068727 1 2 cbr 210 ------- 6 1.0 2.0 225 225
- 0.06888 1 2 cbr 210 ------- 6 1.0 2.0 121 121
+ 0.069033 1 2 cbr 210 ------- 6 1.0 2.0 226 226
+ 0.069338 1 2 cbr 210 ------- 6 1.0 2.0 227 227
d 0.069338 1 2 cbr 210 ------- 6 1.0 2.0 227 227
+ 0.069644 1 2 cbr 210 ------- 6 1.0 2.0 228 228
d 0.069644 1 2 cbr 210 ------- 6 1.0 2.0 228 228
+ 0.069949 1 2 cbr 210 ------- 6 1.0 2.0 229 229
d 0.069949 1 2 cbr 210 ------- 6 1.0 2.0 229 229
+ 0.070255 1 2 cbr 210 ------- 6 1.0 2.0 230 230
d 0.070255 1 2 cbr 210 ------- 6 1.0 2.0 230 230
r 0.0704 1 2 cbr 210 ------- 6 1.0 2.0 55 55
+ 0.07056 1 2 cbr 210 ------- 6 1.0 2.0 231 231
d 0.07056 1 2 cbr 210 ------- 6 1.0 2.0 231 231
- 0.07056 1 2 cbr 210 ------- 6 1.0 2.0 127 127
+ 0.070865 1 2 cbr 210 ------- 6 1.0 2.0 232 232
+ 0.071171 1 2 cbr 210 ------- 6 1.0 2.0 233 233
d 0.071171 1 2 cbr 210 ------- 6 1.0 2.0 233 233
+ 0.071476 1 2 cbr 210 ------- 6 1.0 2.0 234 234
d 0.071476 1 2 cbr 210 ------- 6 1.0 2.0 234 234
+ 0.071782 1 2 cbr 210 ------- 6 1.0 2.0 235 235
d 0.071782 1 2 cbr 210 ------- 6 1.0 2.0 235 235
r 0.07208 1 2 cbr 210 ------- 6 1.0 2.0 61 61
+ 0.072087 1 2 cbr 210 ------- 6 1.0 2.0 236 236
d 0.072087 1 2 cbr 210 ------- 6 1.0 2.0 236 236
- 0.07224 1 2 cbr 210 ------- 6 1.0 2.0 132 132
+ 0.072393 1 2 cbr 210 ------- 6 1.0 2.0 237 237
+ 0.072698 1 2 cbr 210 ------- 6 1.0 2.0 238 238
d 0.072698 1 2 cbr 210 ------- 6 1.0 2.0 238 238
+ 0.073004 1 2 cbr 210 ------- 6 1.0 2.0 239 239
d 0.073004 1 2 cbr 210 ------- 6 1.0 2.0 239 239
+ 0.073309 1 2 cbr 210 ------- 6 1.0 2.0 240 240
d 0.073309 1 2 cbr 210 ------- 6 1.0 2.0 240 240
+ 0.073615 1 2 cbr 210 ------- 6 1.0 2.0 241 241
d 0.073615 1 2 cbr 210 ------- 6 1.0 2.0 241 241
r 0.07376 1 2 cbr 210 ------- 6 1.0 2.0 66 66
+ 0.07392 1 2 cbr 210 ------- 6 1.0 2.0 242 242
d 0.07392 1 2 cbr 210 ------- 6 1.0 2.0 242 242
- 0.07392 1 2 cbr 210 ------- 6 1.0 2.0 138 138
+ 0.074225 1 2 cbr 210 ------- 6 1.0 2.0 243 243
+ 0.074531 1 2 cbr 210 ------- 6 1.0 2.0 244 244
d 0.074531 1 2 cbr 210 ------- 6 1.0 2.0 244 244
+ 0.074836 1 2 cbr 210 ------- 6 1.0 2.0 245 245
d 0.074836 1 2 cbr 210 ------- 6 1.0 2.0 245 245
+ 0.075142 1 2 cbr 210 ------- 6 1.0 2.0 246 246
d 0.075142 1 2 cbr 210 ------- 6 1.0 2.0 246 246
r 0.07544 1 2 cbr 210 ------- 6 1.0 2.0 72 72
+ 0.075447 1 2 cbr 210 ------- 6 1.0 2.0 247 247
d 0.075447 1 2 cbr 210 ------- 6 1.0 2.0 247 247
- 0.0756 1 2 cbr 210 ------- 6 1.0 2.0 143 143
+ 0.075753 1 2 cbr 210 ------- 6 1.0 2.0 248 248
+ 0.076058 1 2 cbr 210 ------- 6 1.0 2.0 249 249
d 0.076058 1 2 cbr 210 ------- 6 1.0 2.0 249 249
+ 0.076364 1 2 cbr 210 ------- 6 1.0 2.0 250 250
d 0.076364 1 2 cbr 210 ------- 6 1.0 2.0 250 250
+ 0.076669 1 2 cbr 210 ------- 6 1.0 2.0 251 251
d 0.076669 1 2 cbr 210 ------- 6 1.0 2.0 251 251
+ 0.076975 1 2 cbr 210 ------- 6 1.0 2.0 252 252
d 0.076975 1 2 cbr 210 ------- 6 1.0 2.0 252 252
r 0.07712 1 2 cbr 210 ------- 6 1.0 2.0 77 77
+ 0.07728 1 2 cbr 210 ------- 6 1.0 2.0 253 253
d 0.07728 1 2 cbr 210 ------- 6 1.0 2.0 253 253
- 0.07728 1 2 cbr 210 ------- 6 1.0 2.0 149 149
+ 0.077585 1 2 cbr 210 ------- 6 1.0 2.0 254 254
+ 0.077891 1 2 cbr 210 ------- 6 1.0 2.0 255 255
d 0.077891 1 2 cbr 210 ------- 6 1.0 2.0 255 255
+ 0.078196 1 2 cbr 210 ------- 6 1.0 2.0 256 256
d 0.078196 1 2 cbr 210 ------- 6 1.0 2.0 256 256
+ 0.078502 1 2 cbr 210 ------- 6 1.0 2.0 257 257
d 0.078502 1 2 cbr 210 ------- 6 1.0 2.0 257 257
r 0.0788 1 2 cbr 210 ------- 6 1.0 2.0 83 83
+ 0.078807 1 2 cbr 210 ------- 6 1.0 2.0 258 258
d 0.078807 1 2 cbr 210 ------- 6 1.0 2.0 258 258
- 0.07896 1 2 cbr 210 ------- 6 1.0 2.0 154 154
+ 0.079113 1 2 cbr 210 ------- 6 1.0 2.0 259 259
+ 0.079418 1 2 cbr 210 ------- 6 1.0 2.0 260 260
d 0.079418 1 2 cbr 210 ------- 6 1.0 2.0 260 260
+ 0.079724 1 2 cbr 210 ------- 6 1.0 2.0 261 261
d 0.079724 1 2 cbr 210 ------- 6 1.0 2.0 261 261
+ 0.080029 1 2 cbr 210 ------- 6 1.0 2.0 262 262
d 0.080029 1 2 cbr 210 ------- 6 1.0 2.0 262 262
+ 0.080335 1 2 cbr 210 ------- 6 1.0 2.0 263 263
d 0.080335 1 2 cbr 210 ------- 6 1.0 2.0 263 263
r 0.08048 1 2 cbr 210 ------- 6 1.0 2.0 88 88
+ 0.08064 1 2 cbr 210 ------- 6 1.0 2.0 264 264
d 0.08064 1 2 cbr 210 ------- 6 1.0 2.0 264 264
- 0.08064 1 2 cbr 210 ------- 6 1.0 2.0 160 160
+ 0.080945 1 2 cbr 210 ------- 6 1.0 2.0 265 265
+ 0.081251 1 2 cbr 210 ------- 6 1.0 2.0 266 266
d 0.081251 1 2 cbr 210 ------- 6 1.0 2.0 266 266
+ 0.081556 1 2 cbr 210 ------- 6 1.0 2.0 267 267
d 0.081556 1 2 cbr 210 ------- 6 1.0 2.0 267 267
+ 0.081862 1 2 cbr 210 ------- 6 1.0 2.0 268 268
d 0.081862 1 2 cbr 210 ------- 6 1.0 2.0 268 268
r 0.08216 1 2 cbr 210 ------- 6 1.0 2.0 94 94
+ 0.082167 1 2 cbr 210 ------- 6 1.0 2.0 269 269
d 0.082167 1 2 cbr 210 ------- 6 1.0 2.0 269 269
- 0.08232 1 2 cbr 210 ------- 6 1.0 2.0 165 165
+ 0.082473 1 2 cbr 210 ------- 6 1.0 2.0 270 270
+ 0.082778 1 2 cbr 210 ------- 6 1.0 2.0 271 271
d 0.082778 1 2 cbr 210 ------- 6 1.0 2.0 271 271
+ 0.083084 1 2 cbr 210 ------- 6 1.0 2.0 272 272
d 0.083084 1 2 cbr 210 ------- 6 1.0 2.0 272 272
+ 0.083389 1 2 cbr 210 ------- 6 1.0 2.0 273 273
d 0.083389 1 2 cbr 210 ------- 6 1.0 2.0 273 273
+ 0.083695 1 2 cbr 210 ------- 6 1.0 2.0 274 274
d 0.083695 1 2 cbr 210 ------- 6 1.0 2.0 274 274
r 0.08384 1 2 cbr 210 ------- 6 1.0 2.0 99 99
+ 0.084 1 2 cbr 210 ------- 6 1.0 2.0 275 275
d 0.084 1 2 cbr 210 ------- 6 1.0 2.0 275 275
- 0.084 1 2 cbr 210 ------- 6 1.0 2.0 171 171
+ 0.084305 1 2 cbr 210 ------- 6 1.0 2.0 276 276
+ 0.084611 1 2 cbr 210 ------- 6 1.0 2.0 277 277
d 0.084611 1 2 cbr 210 ------- 6 1.0 2.0 277 277
+ 0.084916 1 2 cbr 210 ------- 6 1.0 2.0 278 278
d 0.084916 1 2 cbr 210 ------- 6 1.0 2.0 278 278
+ 0.085222 1 2 cbr 210 ------- 6 1.0 2.0 279 279
d 0.085222 1 2 cbr 210 ------- 6 1.0 2.0 279 279
r 0.08552 1 2 cbr 210 ------- 6 1.0 2.0 105 105
+ 0.085527 1 2 cbr 210 ------- 6 1.0 2.0 280 280
d 0.085527 1 2 cbr 210 ------- 6 1.0 2.0 280 280
- 0.08568 1 2 cbr 210 ------- 6 1.0 2.0 176 176
+ 0.085833 1 2 cbr 210 ------- 6 1.0 2.0 281 281
+ 0.086138 1 2 cbr 210 ------- 6 1.0 2.0 282 282
d 0.086138 1 2 cbr 210 ------- 6 1.0 2.0 282 282
+ 0.086444 1 2 cbr 210 ------- 6 1.0 2.0 283 283
d 0.086444 1 2 cbr 210 ------- 6 1.0 2.0 283 283
+ 0.086749 1 2 cbr 210 ------- 6 1.0 2.0 284 284
d 0.086749 1 2 cbr 210 ------- 6 1.0 2.0 284 284
+ 0.087055 1 2 cbr 210 ------- 6 1.0 2.0 285 285
d 0.087055 1 2 cbr 210 ------- 6 1.0 2.0 285 285
r 0.0872 1 2 cbr 210 ------- 6 1.0 2.0 110 110
+ 0.08736 1 2 cbr 210 ------- 6 1.0 2.0 286 286
d 0.08736 1 2 cbr 210 ------- 6 1.0 2.0 286 286
- 0.08736 1 2 cbr 210 ------- 6 1.0 2.0 182 182
+ 0.087665 1 2 cbr 210 ------- 6 1.0 2.0 287 287
+ 0.087971 1 2 cbr 210 ------- 6 1.0 2.0 288 288
d 0.087971 1 2 cbr 210 ------- 6 1.0 2.0 288 288
+ 0.088276 1 2 cbr 210 ------- 6 1.0 2.0 289 289
d 0.088276 1 2 cbr 210 ------- 6 1.0 2.0 289 289
+ 0.088582 1 2 cbr 210 ------- 6 1.0 2.0 290 290
d 0.088582 1 2 cbr 210 ------- 6 1.0 2.0 290 290
r 0.08888 1 2 cbr 210 ------- 6 1.0 2.0 116 116
+ 0.088887 1 2 cbr 210 ------- 6 1.0 2.0 291 291
d 0.088887 1 2 cbr 210 ------- 6 1.0 2.0 291 291
- 0.08904 1 2 cbr 210 ------- 6 1.0 2.0 187 187
+ 0.089193 1 2 cbr 210 ------- 6 1.0 2.0 292 292
+ 0.089498 1 2 cbr 210 ------- 6 1.0 2.0 293 293
d 0.089498 1 2 cbr 210 ------- 6 1.0 2.0 293 293
+ 0.089804 1 2 cbr 210 ------- 6 1.0 2.0 294 294
d 0.089804 1 2 cbr 210 ------- 6 1.0 2.0 294 294
+ 0.090109 1 2 cbr 210 ------- 6 1.0 2.0 295 295
d 0.090109 1 2 cbr 210 ------- 6 1.0 2.0 295 295
+ 0.090415 1 2 cbr 210 ------- 6 1.0 2.0 296 296
d 0.090415 1 2 cbr 210 ------- 6 1.0 2.0 296 296
r 0.09056 1 2 cbr 210 ------- 6 1.0 2.0 121 121
+ 0.09072 1 2 cbr 210 ------- 6 1.0 2.0 297 297
d 0.09072 1 2 cbr 210 ------- 6 1.0 2.0 297 297
- 0.09072 1 2 cbr 210 ------- 6 1.0 2.0 193 193
+ 0.091025 1 2 cbr 210 ------- 6 1.0 2.0 298 298
+ 0.091331 1 2 cbr 210 ------- 6 1.0 2.0 299 299
d 0.091331 1 2 cbr 210 ------- 6 1.0 2.0 299 299
+ 0.091636 1 2 cbr 210 ------- 6 1.0 2.0 300 300
d 0.091636 1 2 cbr 210 ------- 6 1.0 2.0 300 300
+ 0.091942 1 2 cbr 210 ------- 6 1.0 2.0 301 301