+ 0 1 2 cbr 210 ------- 6 1.0 2.0 0 0
- 0 1 2 cbr 210 ------- 6 1.0 2.0 0 0
+ 0.00168 1 2 cbr 210 ------- 6 1.0 2.0 1 1
- 0.00168 1 2 cbr 210 ------- 6 1.0 2.0 1 1
+ 0.00336 1 2 cbr 210 ------- 6 1.0 2.0 2 2
- 0.00336 1 2 cbr 210 ------- 6 1.0 2.0 2 2
+ 0.00504 1 2 cbr 210 ------- 6 1.0 2.0 3 3
- 0.00504 1 2 cbr 210 ------- 6 1.0 2.0 3 3
+ 0.00672 1 2 cbr 210 ------- 6 1.0 2.0 4 4
- 0.00672 1 2 cbr 210 ------- 6 1.0 2.0 4 4
+ 0.0084 1 2 cbr 210 ------- 6 1.0 2.0 5 5
- 0.0084 1 2 cbr 210 ------- 6 1.0 2.0 5 5
+ 0.01008 1 2 cbr 210 ------- 6 1.0 2.0 6 6
- 0.01008 1 2 cbr 210 ------- 6 1.0 2.0 6 6
+ 0.01176 1 2 cbr 210 ------- 6 1.0 2.0 7 7
- 0.01176 1 2 cbr 210 ------- 6 1.0 2.0 7 7
+ 0.01344 1 2 cbr 210 ------- 6 1.0 2.0 8 8
- 0.01344 1 2 cbr 210 ------- 6 1.0 2.0 8 8
+ 0.01512 1 2 cbr 210 ------- 6 1.0 2.0 9 9
- 0.01512 1 2 cbr 210 ------- 6 1.0 2.0 9 9
+ 0.0168 1 2 cbr 210 ------- 6 1.0 2.0 10 10
- 0.0168 1 2 cbr 210 ------- 6 1.0 2.0 10 10
+ 0.01848 1 2 cbr 210 ------- 6 1.0 2.0 11 11
- 0.01848 1 2 cbr 210 ------- 6 1.0 2.0 11 11
+ 0.02016 1 2 cbr 210 ------- 6 1.0 2.0 12 12
- 0.02016 1 2 cbr 210 ------- 6 1.0 2.0 12 12
r 0.020168 1 2 cbr 210 ------- 6 1.0 2.0 0 0
+ 0.02184 1 2 cbr 210 ------- 6 1.0 2.0 13 13
- 0.02184 1 2 cbr 210 ------- 6 1.0 2.0 13 13
r 0.021848 1 2 cbr 210 ------- 6 1.0 2.0 1 1
+ 0.02352 1 2 cbr 210 ------- 6 1.0 2.0 14 14
- 0.02352 1 2 cbr 210 ------- 6 1.0 2.0 14 14
r 0.023528 1 2 cbr 210 ------- 6 1.0 2.0 2 2
+ 0.0252 1 2 cbr 210 ------- 6 1.0 2.0 15 15
- 0.0252 1 2 cbr 210 ------- 6 1.0 2.0 15 15
r 0.025208 1 2 cbr 210 ------- 6 1.0 2.0 3 3
+ 0.02688 1 2 cbr 210 ------- 6 1.0 2.0 16 16
- 0.02688 1 2 cbr 210 ------- 6 1.0 2.0 16 16
r 0.026888 1 2 cbr 210 ------- 6 1.0 2.0 4 4
+ 0.02856 1 2 cbr 210 ------- 6 1.0 2.0 17 17
- 0.02856 1 2 cbr 210 ------- 6 1.0 2.0 17 17
r 0.028568 1 2 cbr 210 ------- 6 1.0 2.0 5 5
+ 0.03024 1 2 cbr 210 ------- 6 1.0 2.0 18 18
- 0.03024 1 2 cbr 210 ------- 6 1.0 2.0 18 18
r 0.030248 1 2 cbr 210 ------- 6 1.0 2.0 6 6
+ 0.03192 1 2 cbr 210 ------- 6 1.0 2.0 19 19
- 0.03192 1 2 cbr 210 ------- 6 1.0 2.0 19 19
r 0.031928 1 2 cbr 210 ------- 6 1.0 2.0 7 7
+ 0.0336 1 2 cbr 210 ------- 6 1.0 2.0 20 20
- 0.0336 1 2 cbr 210 ------- 6 1.0 2.0 20 20
r 0.033608 1 2 cbr 210 ------- 6 1.0 2.0 8 8
+ 0.03528 1 2 cbr 210 ------- 6 1.0 2.0 21 21
- 0.03528 1 2 cbr 210 ------- 6 1.0 2.0 21 21
r 0.035288 1 2 cbr 210 ------- 6 1.0 2.0 9 9
+ 0.03696 1 2 cbr 210 ------- 6 1.0 2.0 22 22
- 0.03696 1 2 cbr 210 ------- 6 1.0 2.0 22 22
r 0.036968 1 2 cbr 210 ------- 6 1.0 2.0 10 10
+ 0.03864 1 2 cbr 210 ------- 6 1.0 2.0 23 23
- 0.03864 1 2 cbr 210 ------- 6 1.0 2.0 23 23
r 0.038648 1 2 cbr 210 ------- 6 1.0 2.0 11 11
+ 0.04032 1 2 cbr 210 ------- 6 1.0 2.0 24 24
- 0.04032 1 2 cbr 210 ------- 6 1.0 2.0 24 24
r 0.040328 1 2 cbr 210 ------- 6 1.0 2.0 12 12
+ 0.042 1 2 cbr 210 ------- 6 1.0 2.0 25 25
- 0.042 1 2 cbr 210 ------- 6 1.0 2.0 25 25
r 0.042008 1 2 cbr 210 ------- 6 1.0 2.0 13 13
+ 0.04368 1 2 cbr 210 ------- 6 1.0 2.0 26 26
- 0.04368 1 2 cbr 210 ------- 6 1.0 2.0 26 26
r 0.043688 1 2 cbr 210 ------- 6 1.0 2.0 14 14
+ 0.04536 1 2 cbr 210 ------- 6 1.0 2.0 27 27
- 0.04536 1 2 cbr 210 ------- 6 1.0 2.0 27 27
r 0.045368 1 2 cbr 210 ------- 6 1.0 2.0 15 15
+ 0.04704 1 2 cbr 210 ------- 6 1.0 2.0 28 28
- 0.04704 1 2 cbr 210 ------- 6 1.0 2.0 28 28
r 0.047048 1 2 cbr 210 ------- 6 1.0 2.0 16 16
+ 0.04872 1 2 cbr 210 ------- 6 1.0 2.0 29 29
- 0.04872 1 2 cbr 210 ------- 6 1.0 2.0 29 29
r 0.048728 1 2 cbr 210 ------- 6 1.0 2.0 17 17
+ 0.0504 1 2 cbr 210 ------- 6 1.0 2.0 30 30
- 0.0504 1 2 cbr 210 ------- 6 1.0 2.0 30 30
r 0.050408 1 2 cbr 210 ------- 6 1.0 2.0 18 18
+ 0.05208 1 2 cbr 210 ------- 6 1.0 2.0 31 31
- 0.05208 1 2 cbr 210 ------- 6 1.0 2.0 31 31
r 0.052088 1 2 cbr 210 ------- 6 1.0 2.0 19 19
+ 0.05376 1 2 cbr 210 ------- 6 1.0 2.0 32 32
- 0.05376 1 2 cbr 210 ------- 6 1.0 2.0 32 32
r 0.053768 1 2 cbr 210 ------- 6 1.0 2.0 20 20
+ 0.05544 1 2 cbr 210 ------- 6 1.0 2.0 33 33
- 0.05544 1 2 cbr 210 ------- 6 1.0 2.0 33 33
r 0.055448 1 2 cbr 210 ------- 6 1.0 2.0 21 21
+ 0.05712 1 2 cbr 210 ------- 6 1.0 2.0 34 34
- 0.05712 1 2 cbr 210 ------- 6 1.0 2.0 34 34
r 0.057128 1 2 cbr 210 ------- 6 1.0 2.0 22 22
+ 0.0588 1 2 cbr 210 ------- 6 1.0 2.0 35 35
- 0.0588 1 2 cbr 210 ------- 6 1.0 2.0 35 35
r 0.058808 1 2 cbr 210 ------- 6 1.0 2.0 23 23
+ 0.06048 1 2 cbr 210 ------- 6 1.0 2.0 36 36
- 0.06048 1 2 cbr 210 ------- 6 1.0 2.0 36 36
r 0.060488 1 2 cbr 210 ------- 6 1.0 2.0 24 24
+ 0.06216 1 2 cbr 210 ------- 6 1.0 2.0 37 37
- 0.06216 1 2 cbr 210 ------- 6 1.0 2.0 37 37
r 0.062168 1 2 cbr 210 ------- 6 1.0 2.0 25 25
+ 0.06384 1 2 cbr 210 ------- 6 1.0 2.0 38 38
- 0.06384 1 2 cbr 210 ------- 6 1.0 2.0 38 38
r 0.063848 1 2 cbr 210 ------- 6 1.0 2.0 26 26
+ 0.06552 1 2 cbr 210 ------- 6 1.0 2.0 39 39
- 0.06552 1 2 cbr 210 ------- 6 1.0 2.0 39 39
r 0.065528 1 2 cbr 210 ------- 6 1.0 2.0 27 27
+ 0.0672 1 2 cbr 210 ------- 6 1.0 2.0 40 40
- 0.0672 1 2 cbr 210 ------- 6 1.0 2.0 40 40
r 0.067208 1 2 cbr 210 ------- 6 1.0 2.0 28 28
+ 0.06888 1 2 cbr 210 ------- 6 1.0 2.0 41 41
- 0.06888 1 2 cbr 210 ------- 6 1.0 2.0 41 41
r 0.068888 1 2 cbr 210 ------- 6 1.0 2.0 29 29
+ 0.07056 1 2 cbr 210 ------- 6 1.0 2.0 42 42
- 0.07056 1 2 cbr 210 ------- 6 1.0 2.0 42 42
r 0.070568 1 2 cbr 210 ------- 6 1.0 2.0 30 30
+ 0.07224 1 2 cbr 210 ------- 6 1.0 2.0 43 43
- 0.07224 1 2 cbr 210 ------- 6 1.0 2.0 43 43
r 0.072248 1 2 cbr 210 ------- 6 1.0 2.0 31 31
+ 0.07392 1 2 cbr 210 ------- 6 1.0 2.0 44 44
- 0.07392 1 2 cbr 210 ------- 6 1.0 2.0 44 44
r 0.073928 1 2 cbr 210 ------- 6 1.0 2.0 32 32
+ 0.0756 1 2 cbr 210 ------- 6 1.0 2.0 45 45
- 0.0756 1 2 cbr 210 ------- 6 1.0 2.0 45 45
r 0.075608 1 2 cbr 210 ------- 6 1.0 2.0 33 33
+ 0.07728 1 2 cbr 210 ------- 6 1.0 2.0 46 46
- 0.07728 1 2 cbr 210 ------- 6 1.0 2.0 46 46
r 0.077288 1 2 cbr 210 ------- 6 1.0 2.0 34 34
+ 0.07896 1 2 cbr 210 ------- 6 1.0 2.0 47 47
- 0.07896 1 2 cbr 210 ------- 6 1.0 2.0 47 47
r 0.078968 1 2 cbr 210 ------- 6 1.0 2.0 35 35
+ 0.08064 1 2 cbr 210 ------- 6 1.0 2.0 48 48
- 0.08064 1 2 cbr 210 ------- 6 1.0 2.0 48 48
r 0.080648 1 2 cbr 210 ------- 6 1.0 2.0 36 36
+ 0.08232 1 2 cbr 210 ------- 6 1.0 2.0 49 49
- 0.08232 1 2 cbr 210 ------- 6 1.0 2.0 49 49
r 0.082328 1 2 cbr 210 ------- 6 1.0 2.0 37 37
+ 0.084 1 2 cbr 210 ------- 6 1.0 2.0 50 50
- 0.084 1 2 cbr 210 ------- 6 1.0 2.0 50 50
r 0.084008 1 2 cbr 210 ------- 6 1.0 2.0 38 38
+ 0.08568 1 2 cbr 210 ------- 6 1.0 2.0 51 51
- 0.08568 1 2 cbr 210 ------- 6 1.0 2.0 51 51
r 0.085688 1 2 cbr 210 ------- 6 1.0 2.0 39 39
+ 0.08736 1 2 cbr 210 ------- 6 1.0 2.0 52 52
- 0.08736 1 2 cbr 210 ------- 6 1.0 2.0 52 52
r 0.087368 1 2 cbr 210 ------- 6 1.0 2.0 40 40
+ 0.08904 1 2 cbr 210 ------- 6 1.0 2.0 53 53
- 0.08904 1 2 cbr 210 ------- 6 1.0 2.0 53 53
r 0.089048 1 2 cbr 210 ------- 6 1.0 2.0 41 41
+ 0.09072 1 2 cbr 210 ------- 6 1.0 2.0 54 54
- 0.09072 1 2 cbr 210 ------- 6 1.0 2.0 54 54
r 0.090728 1 2 cbr 210 ------- 6 1.0 2.0 42 42
+ 0.0924 1 2 cbr 210 ------- 6 1.0 2.0 55 55
- 0.0924 1 2 cbr 210 ------- 6 1.0 2.0 55 55
r 0.092408 1 2 cbr 210 ------- 6 1.0 2.0 43 43
+ 0.09408 1 2 cbr 210 ------- 6 1.0 2.0 56 56
- 0.09408 1 2 cbr 210 ------- 6 1.0 2.0 56 56
r 0.094088 1 2 cbr 210 ------- 6 1.0 2.0 44 44
+ 0.09576 1 2 cbr 210 ------- 6 1.0 2.0 57 57
- 0.09576 1 2 cbr 210 ------- 6 1.0 2.0 57 57
r 0.095768 1 2 cbr 210 ------- 6 1.0 2.0 45 45
+ 0.09744 1 2 cbr 210 ------- 6 1.0 2.0 58 58
- 0.09744 1 2 cbr 210 ------- 6 1.0 2.0 58 58
r 0.097448 1 2 cbr 210 ------- 6 1.0 2.0 46 46
+ 0.09912 1 2 cbr 210 ------- 6 1.0 2.0 59 59
- 0.09912 1 2 cbr 210 ------- 6 1.0 2.0 59 59
r 0.099128 1 2 cbr 210 ------- 6 1.0 2.0 47 47
+ 0.1008 1 2 cbr 210 ------- 6 1.0 2.0 60 60
- 0.1008 1 2 cbr 210 ------- 6 1.0 2.0 60 60
r 0.100808 1 2 cbr 210 ------- 6 1.0 2.0 48 48
+ 0.10248 1 2 cbr 210 ------- 6 1.0 2.0 61 61
- 0.10248 1 2 cbr 210 ------- 6 1.0 2.0 61 61
r 0.102488 1 2 cbr 210 ------- 6 1.0 2.0 49 49
+ 0.10416 1 2 cbr 210 ------- 6 1.0 2.0 62 62
- 0.10416 1 2 cbr 210 ------- 6 1.0 2.0 62 62
r 0.104168 1 2 cbr 210 ------- 6 1.0 2.0 50 50
+ 0.10584 1 2 cbr 210 ------- 6 1.0 2.0 63 63
- 0.10584 1 2 cbr 210 ------- 6 1.0 2.0 63 63
r 0.105848 1 2 cbr 210 ------- 6 1.0 2.0 51 51
+ 0.10752 1 2 cbr 210 ------- 6 1.0 2.0 64 64
- 0.10752 1 2 cbr 210 ------- 6 1.0 2.0 64 64
r 0.107528 1 2 cbr 210 ------- 6 1.0 2.0 52 52
+ 0.1092 1 2 cbr 210 ------- 6 1.0 2.0 65 65
- 0.1092 1 2 cbr 210 ------- 6 1.0 2.0 65 65
r 0.109208 1 2 cbr 210 ------- 6 1.0 2.0 53 53
+ 0.11088 1 2 cbr 210 ------- 6 1.0 2.0 66 66
- 0.11088 1 2 cbr 210 ------- 6 1.0 2.0 66 66
r 0.110888 1 2 cbr 210 ------- 6 1.0 2.0 54 54
+ 0.11256 1 2 cbr 210 ------- 6 1.0 2.0 67 67
- 0.11256 1 2 cbr 210 ------- 6 1.0 2.0 67 67
r 0.112568 1 2 cbr 210 ------- 6 1.0 2.0 55 55
+ 0.11424 1 2 cbr 210 ------- 6 1.0 2.0 68 68
- 0.11424 1 2 cbr 210 ------- 6 1.0 2.0 68 68
r 0.114248 1 2 cbr 210 ------- 6 1.0 2.0 56 56
+ 0.11592 1 2 cbr 210 ------- 6 1.0 2.0 69 69
- 0.11592 1 2 cbr 210 ------- 6 1.0 2.0 69 69
r 0.115928 1 2 cbr 210 ------- 6 1.0 2.0 57 57
+ 0.1176 1 2 cbr 210 ------- 6 1.0 2.0 70 70
- 0.1176 1 2 cbr 210 ------- 6 1.0 2.0 70 70
r 0.117608 1 2 cbr 210 ------- 6 1.0 2.0 58 58
+ 0.11928 1 2 cbr 210 ------- 6 1.0 2.0 71 71
- 0.11928 1 2 cbr 210 ------- 6 1.0 2.0 71 71
r 0.119288 1 2 cbr 210 ------- 6 1.0 2.0 59 59
+ 0.12096 1 2 cbr 210 ------- 6 1.0 2.0 72 72
- 0.12096 1 2 cbr 210 ------- 6 1.0 2.0 72 72
r 0.120968 1 2 cbr 210 ------- 6 1.0 2.0 60 60
+ 0.12264 1 2 cbr 210 ------- 6 1.0 2.0 73 73
- 0.12264 1 2 cbr 210 ------- 6 1.0 2.0 73 73
r 0.122648 1 2 cbr 210 ------- 6 1.0 2.0 61 61
+ 0.12432 1 2 cbr 210 ------- 6 1.0 2.0 74 74
- 0.12432 1 2 cbr 210 ------- 6 1.0 2.0 74 74
r 0.124328 1 2 cbr 210 ------- 6 1.0 2.0 62 62
+ 0.126 1 2 cbr 210 ------- 6 1.0 2.0 75 75
- 0.126 1 2 cbr 210 ------- 6 1.0 2.0 75 75
r 0.126008 1 2 cbr 210 ------- 6 1.0 2.0 63 63
+ 0.12768 1 2 cbr 210 ------- 6 1.0 2.0 76 76
- 0.12768 1 2 cbr 210 ------- 6 1.0 2.0 76 76
r 0.127688 1 2 cbr 210 ------- 6 1.0 2.0 64 64
+ 0.12936 1 2 cbr 210 ------- 6 1.0 2.0 77 77
- 0.12936 1 2 cbr 210 ------- 6 1.0 2.0 77 77
r 0.129368 1 2 cbr 210 ------- 6 1.0 2.0 65 65
+ 0.13104 1 2 cbr 210 ------- 6 1.0 2.0 78 78
- 0.13104 1 2 cbr 210 ------- 6 1.0 2.0 78 78
r 0.131048 1 2 cbr 210 ------- 6 1.0 2.0 66 66
+ 0.13272 1 2 cbr 210 ------- 6 1.0 2.0 79 79
- 0.13272 1 2 cbr 210 ------- 6 1.0 2.0 79 79
r 0.132728 1 2 cbr 210 ------- 6 1.0 2.0 67 67
+ 0.1344 1 2 cbr 210 ------- 6 1.0 2.0 80 80
- 0.1344 1 2 cbr 210 ------- 6 1.0 2.0 80 80
r 0.134408 1 2 cbr 210 ------- 6 1.0 2.0 68 68
+ 0.13608 1 2 cbr 210 ------- 6 1.0 2.0 81 81
- 0.13608 1 2 cbr 210 ------- 6 1.0 2.0 81 81
r 0.136088 1 2 cbr 210 ------- 6 1.0 2.0 69 69
+ 0.13776 1 2 cbr 210 ------- 6 1.0 2.0 82 82
- 0.13776 1 2 cbr 210 ------- 6 1.0 2.0 82 82
r 0.137768 1 2 cbr 210 ------- 6 1.0 2.0 70 70
+ 0.13944 1 2 cbr 210 ------- 6 1.0 2.0 83 83
- 0.13944 1 2 cbr 210 ------- 6 1.0 2.0 83 83
r 0.139448 1 2 cbr 210 ------- 6 1.0 2.0 71 71
+ 0.14112 1 2 cbr 210 ------- 6 1.0 2.0 84 84
- 0.14112 1 2 cbr 210 ------- 6 1.0 2.0 84 84
r 0.141128 1 2 cbr 210 ------- 6 1.0 2.0 72 72
+ 0.1428 1 2 cbr 210 ------- 6 1.0 2.0 85 85
- 0.1428 1 2 cbr 210 ------- 6 1.0 2.0 85 85
r 0.142808 1 2 cbr 210 ------- 6 1.0 2.0 73 73
+ 0.14448 1 2 cbr 210 ------- 6 1.0 2.0 86 86
- 0.14448 1 2 cbr 210 ------- 6 1.0 2.0 86 86
r 0.144488 1 2 cbr 210 ------- 6 1.0 2.0 74 74
+ 0.14616 1 2 cbr 210 ------- 6 1.0 2.0 87 87
- 0.14616 1 2 cbr 210 ------- 6 1.0 2.0 87 87
r 0.146168 1 2 cbr 210 ------- 6 1.0 2.0 75 75
+ 0.14784 1 2 cbr 210 ------- 6 1.0 2.0 88 88
- 0.14784 1 2 cbr 210 ------- 6 1.0 2.0 88 88
r 0.147848 1 2 cbr 210 ------- 6 1.0 2.0 76 76
+ 0.14952 1 2 cbr 210 ------- 6 1.0 2.0 89 89
- 0.14952 1 2 cbr 210 ------- 6 1.0 2.0 89 89
r 0.149528 1 2 cbr 210 ------- 6 1.0 2.0 77 77
+ 0.1512 1 2 cbr 210 ------- 6 1.0 2.0 90 90
- 0.1512 1 2 cbr 210 ------- 6 1.0 2.0 90 90
r 0.151208 1 2 cbr 210 ------- 6 1.0 2.0 78 78
+ 0.15288 1 2 cbr 210 ------- 6 1.0 2.0 91 91
- 0.15288 1 2 cbr 210 ------- 6 1.0 2.0 91 91
r 0.152888 1 2 cbr 210 ------- 6 1.0 2.0 79 79
+ 0.15456 1 2 cbr 210 ------- 6 1.0 2.0 92 92
- 0.15456 1 2 cbr 210 ------- 6 1.0 2.0 92 92
r 0.154568 1 2 cbr 210 ------- 6 1.0 2.0 80 80
+ 0.15624 1 2 cbr 210 ------- 6 1.0 2.0 93 93
- 0.15624 1 2 cbr 210 ------- 6 1.0 2.0 93 93
r 0.156248 1 2 cbr 210 ------- 6 1.0 2.0 81 81
+ 0.15792 1 2 cbr 210 ------- 6 1.0 2.0 94 94
- 0.15792 1 2 cbr 210 ------- 6 1.0 2.0 94 94
r 0.157928 1 2 cbr 210 ------- 6 1.0 2.0 82 82
+ 0.1596 1 2 cbr 210 ------- 6 1.0 2.0 95 95
- 0.1596 1 2 cbr 210 ------- 6 1.0 2.0 95 95
r 0.159608 1 2 cbr 210 ------- 6 1.0 2.0 83 83
+ 0.16128 1 2 cbr 210 ------- 6 1.0 2.0 96 96
- 0.16128 1 2 cbr 210 ------- 6 1.0 2.0 96 96
r 0.161288 1 2 cbr 210 ------- 6 1.0 2.0 84 84
+ 0.16296 1 2 cbr 210 ------- 6 1.0 2.0 97 97
- 0.16296 1 2 cbr 210 ------- 6 1.0 2.0 97 97
r 0.162968 1 2 cbr 210 ------- 6 1.0 2.0 85 85
+ 0.16464 1 2 cbr 210 ------- 6 1.0 2.0 98 98
- 0.16464 1 2 cbr 210 ------- 6 1.0 2.0 98 98
r 0.164648 1 2 cbr 210 ------- 6 1.0 2.0 86 86
+ 0.16632 1 2 cbr 210 ------- 6 1.0 2.0 99 99
- 0.16632 1 2 cbr 210 ------- 6 1.0 2.0 99 99
r 0.166328 1 2 cbr 210 ------- 6 1.0 2.0 87 87
+ 0.168 1 2 cbr 210 ------- 6 1.0 2.0 100 100
- 0.168 1 2 cbr 210 ------- 6 1.0 2.0 100 100
r 0.168008 1 2 cbr 210 ------- 6 1.0 2.0 88 88
+ 0.16968 1 2 cbr 210 ------- 6 1.0 2.0 101 101
- 0.16968 1 2 cbr 210 ------- 6 1.0 2.0 101 101
r 0.169688 1 2 cbr 210 ------- 6 1.0 2.0 89 89
+ 0.17136 1 2 cbr 210 ------- 6 1.0 2.0 102 102
- 0.17136 1 2 cbr 210 ------- 6 1.0 2.0 102 102
r 0.171368 1 2 cbr 210 ------- 6 1.0 2.0 90 90
+ 0.17304 1 2 cbr 210 ------- 6 1.0 2.0 103 103
- 0.17304 1 2 cbr 210 ------- 6 1.0 2.0 103 103
r 0.173048 1 2 cbr 210 ------- 6 1.0 2.0 91 91
+ 0.17472 1 2 cbr 210 ------- 6 1.0 2.0 104 104
- 0.17472 1 2 cbr 210 ------- 6 1.0 2.0 104 104
r 0.174728 1 2 cbr 210 ------- 6 1.0 2.0 92 92
+ 0.1764 1 2 cbr 210 ------- 6 1.0 2.0 105 105
- 0.1764 1 2 cbr 210 ------- 6 1.0 2.0 105 105
r 0.176408 1 2 cbr 210 ------- 6 1.0 2.0 93 93
+ 0.17808 1 2 cbr 210 ------- 6 1.0 2.0 106 106
- 0.17808 1 2 cbr 210 ------- 6 1.0 2.0 106 106
r 0.178088 1 2 cbr 210 ------- 6 1.0 2.0 94 94
+ 0.17976 1 2 cbr 210 ------- 6 1.0 2.0 107 107
- 0.17976 1 2 cbr 210 ------- 6 1.0 2.0 107 107
r 0.179768 1 2 cbr 210 ------- 6 1.0 2.0 95 95
+ 0.18144 1 2 cbr 210 ------- 6 1.0 2.0 108 108
- 0.18144 1 2 cbr 210 ------- 6 1.0 2.0 108 108
r 0.181448 1 2 cbr 210 ------- 6 1.0 2.0 96 96
+ 0.18312 1 2 cbr 210 ------- 6 1.0 2.0 109 109
- 0.18312 1 2 cbr 210 ------- 6 1.0 2.0 109 109
r 0.183128 1 2 cbr 210 ------- 6 1.0 2.0 97 97
+ 0.1848 1 2 cbr 210 ------- 6 1.0 2.0 110 110
- 0.1848 1 2 cbr 210 ------- 6 1.0 2.0 110 110
r 0.184808 1 2 cbr 210 ------- 6 1.0 2.0 98 98
+ 0.18648 1 2 cbr 210 ------- 6 1.0 2.0 111 111
- 0.18648 1 2 cbr 210 ------- 6 1.0 2.0 111 111
r 0.186488 1 2 cbr 210 ------- 6 1.0 2.0 99 99
+ 0.18816 1 2 cbr 210 ------- 6 1.0 2.0 112 112
- 0.18816 1 2 cbr 210 ------- 6 1.0 2.0 112 112
r 0.188168 1 2 cbr 210 ------- 6 1.0 2.0 100 100
+ 0.18984 1 2 cbr 210 ------- 6 1.0 2.0 113 113
- 0.18984 1 2 cbr 210 ------- 6 1.0 2.0 113 113
r 0.189848 1 2 cbr 210 ------- 6 1.0 2.0 101 101
+ 0.19152 1 2 cbr 210 ------- 6 1.0 2.0 114 114
- 0.19152 1 2 cbr 210 ------- 6 1.0 2.0 114 114
r 0.191528 1 2 cbr 210 ------- 6 1.0 2.0 102 102
+ 0.1932 1 2 cbr 210 ------- 6 1.0 2.0 115 115
- 0.1932 1 2 cbr 210 ------- 6 1.0 2.0 115 115
r 0.193208 1 2 cbr 210 ------- 6 1.0 2.0 103 103
+ 0.19488 1 2 cbr 210 ------- 6 1.0 2.0 116 116
- 0.19488 1 2 cbr 210 ------- 6 1.0 2.0 116 116
r 0.194888 1 2 cbr 210 ------- 6 1.0 2.0 104 104
+ 0.19656 1 2 cbr 210 ------- 6 1.0 2.0 117 117
- 0.19656 1 2 cbr 210 ------- 6 1.0 2.0 117 117
r 0.196568 1 2 cbr 210 ------- 6 1.0 2.0 105 105
+ 0.19824 1 2 cbr 210 ------- 6 1.0 2.0 118 118
- 0.19824 1 2 cbr 210 ------- 6 1.0 2.0 118 118
r 0.198248 1 2 cbr 210 ------- 6 1.0 2.0 106 106
+ 0.19992 1 2 cbr 210 ------- 6 1.0 2.0 119 119
- 0.19992 1 2 cbr 210 ------- 6 1.0 2.0 119 119
r 0.199928 1 2 cbr 210 ------- 6 1.0 2.0 107 107
+ 0.2016 1 2 cbr 210 ------- 6 1.0 2.0 120 120
- 0.2016 1 2 cbr 210 ------- 6 1.0 2.0 120 120
r 0.201608 1 2 cbr 210 ------- 6 1.0 2.0 108 108
+ 0.20328 1 2 cbr 210 ------- 6 1.0 2.0 121 121
- 0.20328 1 2 cbr 210 ------- 6 1.0 2.0 121 121
r 0.203288 1 2 cbr 210 ------- 6 1.0 2.0 109 109
+ 0.20496 1 2 cbr 210 ------- 6 1.0 2.0 122 122
- 0.20496 1 2 cbr 210 ------- 6 1.0 2.0 122 122
r 0.204968 1 2 cbr 210 ------- 6 1.0 2.0 110 110
+ 0.20664 1 2 cbr 210 ------- 6 1.0 2.0 123 123
- 0.20664 1 2 cbr 210 ------- 6 1.0 2.0 123 123
r 0.206648 1 2 cbr 210 ------- 6 1.0 2.0 111 111
+ 0.20832 1 2 cbr 210 ------- 6 1.0 2.0 124 124
- 0.20832 1 2 cbr 210 ------- 6 1.0 2.0 124 124
r 0.208328 1 2 cbr 210 ------- 6 1.0 2.0 112 112
+ 0.21 1 2 cbr 210 ------- 6 1.0 2.0 125 125
- 0.21 1 2 cbr 210 ------- 6 1.0 2.0 125 125
r 0.210008 1 2 cbr 210 ------- 6 1.0 2.0 113 113
+ 0.21168 1 2 cbr 210 ------- 6 1.0 2.0 126 126
- 0.21168 1 2 cbr 210 ------- 6 1.0 2.0 126 126
r 0.211688 1 2 cbr 210 ------- 6 1.0 2.0 114 114
+ 0.21336 1 2 cbr 210 ------- 6 1.0 2.0 127 127
- 0.21336 1 2 cbr 210 ------- 6 1.0 2.0 127 127
r 0.213368 1 2 cbr 210 ------- 6 1.0 2.0 115 115
+ 0.21504 1 2 cbr 210 ------- 6 1.0 2.0 128 128
- 0.21504 1 2 cbr 210 ------- 6 1.0 2.0 128 128
r 0.215048 1 2 cbr 210 ------- 6 1.0 2.0 116 116
+ 0.21672 1 2 cbr 210 ------- 6 1.0 2.0 129 129
- 0.21672 1 2 cbr 210 ------- 6 1.0 2.0 129 129
r 0.216728 1 2 cbr 210 ------- 6 1.0 2.0 117 117
+ 0.2184 1 2 cbr 210 ------- 6 1.0 2.0 130 130
- 0.2184 1 2 cbr 210 ------- 6 1.0 2.0 130 130
r 0.218408 1 2 cbr 210 ------- 6 1.0 2.0 118 118
+ 0.22008 1 2 cbr 210 ------- 6 1.0 2.0 131 131
- 0.22008 1 2 cbr 210 ------- 6 1.0 2.0 131 131
r 0.220088 1 2 cbr 210 ------- 6 1.0 2.0 119 119
+ 0.22176 1 2 cbr 210 ------- 6 1.0 2.0 132 132
- 0.22176 1 2 cbr 210 ------- 6 1.0 2.0 132 132
r 0.221768 1 2 cbr 210 ------- 6 1.0 2.0 120 120
+ 0.22344 1 2 cbr 210 ------- 6 1.0 2.0 133 133
- 0.22344 1 2 cbr 210 ------- 6 1.0 2.0 133 133
r 0.223448 1 2 cbr 210 ------- 6 1.0 2.0 121 121
+ 0.22512 1 2 cbr 210 ------- 6 1.0 2.0 134 134
- 0.22512 1 2 cbr 210 ------- 6 1.0 2.0 134 134
r 0.225128 1 2 cbr 210 ------- 6 1.0 2.0 122 122
+ 0.2268 1 2 cbr 210 ------- 6 1.0 2.0 135 135
- 0.2268 1 2 cbr 210 ------- 6 1.0 2.0 135 135
r 0.226808 1 2 cbr 210 ------- 6 1.0 2.0 123 123
+ 0.22848 1 2 cbr 210 ------- 6 1.0 2.0 136 136
- 0.22848 1 2 cbr 210 ------- 6 1.0 2.0 136 136
r 0.228488 1 2 cbr 210 ------- 6 1.0 2.0 124 124
+ 0.23016 1 2 cbr 210 ------- 6 1.0 2.0 137 137
- 0.23016 1 2 cbr 210 ------- 6 1.0 2.0 137 137
r 0.230168 1 2 cbr 210 ------- 6 1.0 2.0 125 125
+ 0.23184 1 2 cbr 210 ------- 6 1.0 2.0 138 138
- 0.23184 1 2 cbr 210 ------- 6 1.0 2.0 138 138
r 0.231848 1 2 cbr 210 ------- 6 1.0 2.0 126 126
+ 0.23352 1 2 cbr 210 ------- 6 1.0 2.0 139 139
- 0.23352 1 2 cbr 210 ------- 6 1.0 2.0 139 139
r 0.233528 1 2 cbr 210 ------- 6 1.0 2.0 127 127
+ 0.2352 1 2 cbr 210 ------- 6 1.0 2.0 140 140
- 0.2352 1 2 cbr 210 ------- 6 1.0 2.0 140 140
r 0.235208 1 2 cbr 210 ------- 6 1.0 2.0 128 128
+ 0.23688 1 2 cbr 210 ------- 6 1.0 2.0 141 141
- 0.23688 1 2 cbr 210 ------- 6 1.0 2.0 141 141
r 0.236888 1 2 cbr 210 ------- 6 1.0 2.0 129 129
+ 0.23856 1 2 cbr 210 ------- 6 1.0 2.0 142 142
- 0.23856 1 2 cbr 210 ------- 6 1.0 2.0 142 142
r 0.238568 1 2 cbr 210 ------- 6 1.0 2.0 130 130
+ 0.24024 1 2 cbr 210 ------- 6 1.0 2.0 143 143
- 0.24024 1 2 cbr 210 ------- 6 1.0 2.0 143 143
r 0.240248 1 2 cbr 210 ------- 6 1.0 2.0 131 131
+ 0.24192 1 2 cbr 210 ------- 6 1.0 2.0 144 144
- 0.24192 1 2 cbr 210 ------- 6 1.0 2.0 144 144
r 0.241928 1 2 cbr 210 ------- 6 1.0 2.0 132 132
+ 0.2436 1 2 cbr 210 ------- 6 1.0 2.0 145 145
- 0.2436 1 2 cbr 210 ------- 6 1.0 2.0 145 145
r 0.243608 1 2 cbr 210 ------- 6 1.0 2.0 133 133
+ 0.24528 1 2 cbr 210 ------- 6 1.0 2.0 146 146
- 0.24528 1 2 cbr 210 ------- 6 1.0 2.0 146 146
r 0.245288 1 2 cbr 210 ------- 6 1.0 2.0 134 134
+ 0.24696 1 2 cbr 210 ------- 6 1.0 2.0 147 147
- 0.24696 1 2 cbr 210 ------- 6 1.0 2.0 147 147
r 0.246968 1 2 cbr 210 ------- 6 1.0 2.0 135 135
+ 0.24864 1 2 cbr 210 ------- 6 1.0 2.0 148 148
- 0.24864 1 2 cbr 210 ------- 6 1.0 2.0 148 148
r 0.248648 1 2 cbr 210 ------- 6 1.0 2.0 136 136
+ 0.25032 1 2 cbr 210 ------- 6 1.0 2.0 149 149
- 0.25032 1 2 cbr 210 ------- 6 1.0 2.0 149 149
r 0.250328 1 2 cbr 210 ------- 6 1.0 2.0 137 137
+ 0.252 1 2 cbr 210 ------- 6 1.0 2.0 150 150
- 0.252 1 2 cbr 210 ------- 6 1.0 2.0 150 150
r 0.252008 1 2 cbr 210 ------- 6 1.0 2.0 138 138
+ 0.25368 1 2 cbr 210 ------- 6 1.0 2.0 151 151
- 0.25368 1 2 cbr 210 ------- 6 1.0 2.0 151 151
r 0.253688 1 2 cbr 210 ------- 6 1.0 2.0 139 139
+ 0.25536 1 2 cbr 210 ------- 6 1.0 2.0 152 152
- 0.25536 1 2 cbr 210 ------- 6 1.0 2.0 152 152
r 0.255368 1 2 cbr 210 ------- 6 1.0 2.0 140 140
+ 0.25704 1 2 cbr 210 ------- 6 1.0 2.0 153 153
- 0.25704 1 2 cbr 210 ------- 6 1.0 2.0 153 153
r 0.257048 1 2 cbr 210 ------- 6 1.0 2.0 141 141
+ 0.25872 1 2 cbr 210 ------- 6 1.0 2.0 154 154
- 0.25872 1 2 cbr 210 ------- 6 1.0 2.0 154 154
r 0.258728 1 2 cbr 210 ------- 6 1.0 2.0 142 142
+ 0.2604 1 2 cbr 210 ------- 6 1.0 2.0 155 155
- 0.2604 1 2 cbr 210 ------- 6 1.0 2.0 155 155
r 0.260408 1 2 cbr 210 ------- 6 1.0 2.0 143 143
+ 0.26208 1 2 cbr 210 ------- 6 1.0 2.0 156 156
- 0.26208 1 2 cbr 210 ------- 6 1.0 2.0 156 156
r 0.262088 1 2 cbr 210 ------- 6 1.0 2.0 144 144
+ 0.26376 1 2 cbr 210 ------- 6 1.0 2.0 157 157
- 0.26376 1 2 cbr 210 ------- 6 1.0 2.0 157 157
r 0.263768 1 2 cbr 210 ------- 6 1.0 2.0 145 145
+ 0.26544 1 2 cbr 210 ------- 6 1.0 2.0 158 158
- 0.26544 1 2 cbr 210 ------- 6 1.0 2.0 158 158
r 0.265448 1 2 cbr 210 ------- 6 1.0 2.0 146 146
+ 0.26712 1 2 cbr 210 ------- 6 1.0 2.0 159 159
- 0.26712 1 2 cbr 210 ------- 6 1.0 2.0 159 159
r 0.267128 1 2 cbr 210 ------- 6 1.0 2.0 147 147
+ 0.2688 1 2 cbr 210 ------- 6 1.0 2.0 160 160
- 0.2688 1 2 cbr 210 ------- 6 1.0 2.0 160 160
r 0.268808 1 2 cbr 210 ------- 6 1.0 2.0 148 148
+ 0.27048 1 2 cbr 210 ------- 6 1.0 2.0 161 161
- 0.27048 1 2 cbr 210 ------- 6 1.0 2.0 161 161
r 0.270488 1 2 cbr 210 ------- 6 1.0 2.0 149 149
+ 0.27216 1 2 cbr 210 ------- 6 1.0 2.0 162 162
- 0.27216 1 2 cbr 210 ------- 6 1.0 2.0 162 162
r 0.272168 1 2 cbr 210 ------- 6 1.0 2.0 150 150
+ 0.27384 1 2 cbr 210 ------- 6 1.0 2.0 163 163
- 0.27384 1 2 cbr 210 ------- 6 1.0 2.0 163 163
r 0.273848 1 2 cbr 210 ------- 6 1.0 2.0 151 151
+ 0.27552 1 2 cbr 210 ------- 6 1.0 2.0 164 164
- 0.27552 1 2 cbr 210 ------- 6 1.0 2.0 164 164
r 0.275528 1 2 cbr 210 ------- 6 1.0 2.0 152 152
+ 0.2772 1 2 cbr 210 ------- 6 1.0 2.0 165 165
- 0.2772 1 2 cbr 210 ------- 6 1.0 2.0 165 165
r 0.277208 1 2 cbr 210 ------- 6 1.0 2.0 153 153
+ 0.27888 1 2 cbr 210 ------- 6 1.0 2.0 166 166
- 0.27888 1 2 cbr 210 ------- 6 1.0 2.0 166 166
r 0.278888 1 2 cbr 210 ------- 6 1.0 2.0 154 154
+ 0.28056 1 2 cbr 210 ------- 6 1.0 2.0 167 167
- 0.28056 1 2 cbr 210 ------- 6 1.0 2.0 167 167
r 0.280568 1 2 cbr 210 ------- 6 1.0 2.0 155 155
+ 0.28224 1 2 cbr 210 ------- 6 1.0 2.0 168 168
- 0.28224 1 2 cbr 210 ------- 6 1.0 2.0 168 168
r 0.282248 1 2 cbr 210 ------- 6 1.0 2.0 156 156
+ 0.28392 1 2 cbr 210 ------- 6 1.0 2.0 169 169
- 0.28392 1 2 cbr 210 ------- 6 1.0 2.0 169 169
r 0.283928 1 2 cbr 210 ------- 6 1.0 2.0 157 157
+ 0.2856 1 2 cbr 210 ------- 6 1.0 2.0 170 170
- 0.2856 1 2 cbr 210 ------- 6 1.0 2.0 170 170
r 0.285608 1 2 cbr 210 ------- 6 1.0 2.0 158 158
+ 0.28728 1 2 cbr 210 ------- 6 1.0 2.0 171 171
- 0.28728 1 2 cbr 210 ------- 6 1.0 2.0 171 171
r 0.287288 1 2 cbr 210 ------- 6 1.0 2.0 159 159
+ 0.28896 1 2 cbr 210 ------- 6 1.0 2.0 172 172
- 0.28896 1 2 cbr 210 ------- 6 1.0 2.0 172 172
r 0.288968 1 2 cbr 210 ------- 6 1.0 2.0 160 160
+ 0.29064 1 2 cbr 210 ------- 6 1.0 2.0 173 173
- 0.29064 1 2 cbr 210 ------- 6 1.0 2.0 173 173
r 0.290648 1 2 cbr 210 ------- 6 1.0 2.0 161 161
+ 0.29232 1 2 cbr 210 ------- 6 1.0 2.0 174 174
- 0.29232 1 2 cbr 210 ------- 6 1.0 2.0 174 174
r 0.292328 1 2 cbr 210 ------- 6 1.0 2.0 162 162
+ 0.294 1 2 cbr 210 ------- 6 1.0 2.0 175 175
- 0.294 1 2 cbr 210 ------- 6 1.0 2.0 175 175
r 0.294008 1 2 cbr 210 ------- 6 1.0 2.0 163 163
+ 0.29568 1 2 cbr 210 ------- 6 1.0 2.0 176 176
- 0.29568 1 2 cbr 210 ------- 6 1.0 2.0 176 176
r 0.295688 1 2 cbr 210 ------- 6 1.0 2.0 164 164
+ 0.29736 1 2 cbr 210 ------- 6 1.0 2.0 177 177
- 0.29736 1 2 cbr 210 ------- 6 1.0 2.0 177 177
r 0.297368 1 2 cbr 210 ------- 6 1.0 2.0 165 165
+ 0.29904 1 2 cbr 210 ------- 6 1.0 2.0 178 178
- 0.29904 1 2 cbr 210 ------- 6 1.0 2.0 178 178
r 0.299048 1 2 cbr 210 ------- 6 1.0 2.0 166 166
+ 0.30072 1 2 cbr 210 ------- 6 1.0 2.0 179 179
- 0.30072 1 2 cbr 210 ------- 6 1.0 2.0 179 179
r 0.300728 1 2 cbr 210 ------- 6 1.0 2.0 167 167
+ 0.3024 1 2 cbr 210 ------- 6 1.0 2.0 180 180
- 0.3024 1 2 cbr 210 ------- 6 1.0 2.0 180 180
r 0.302408 1 2 cbr 210 ------- 6 1.0 2.0 168 168
+ 0.30408 1 2 cbr 210 ------- 6 1.0 2.0 181 181
- 0.30408 1 2 cbr 210 ------- 6 1.0 2.0 181 181
r 0.304088 1 2 cbr 210 ------- 6 1.0 2.0 169 169
+ 0.30576 1 2 cbr 210 ------- 6 1.0 2.0 182 182
- 0.30576 1 2 cbr 210 ------- 6 1.0 2.0 182 182
r 0.305768 1 2 cbr 210 ------- 6 1.0 2.0 170 170
+ 0.30744 1 2 cbr 210 ------- 6 1.0 2.0 183 183
- 0.30744 1 2 cbr 210 ------- 6 1.0 2.0 183 183
r 0.307448 1 2 cbr 210 ------- 6 1.0 2.0 171 171
+ 0.30912 1 2 cbr 210 ------- 6 1.0 2.0 184 184
- 0.30912 1 2 cbr 210 ------- 6 1.0 2.0 184 184
r 0.309128 1 2 cbr 210 ------- 6 1.0 2.0 172 172
+ 0.3108 1 2 cbr 210 ------- 6 1.0 2.0 185 185
- 0.3108 1 2 cbr 210 ------- 6 1.0 2.0 185 185
r 0.310808 1 2 cbr 210 ------- 6 1.0 2.0 173 173
+ 0.31248 1 2 cbr 210 ------- 6 1.0 2.0 186 186
- 0.31248 1 2 cbr 210 ------- 6 1.0 2.0 186 186
r 0.312488 1 2 cbr 210 ------- 6 1.0 2.0 174 174
+ 0.31416 1 2 cbr 210 ------- 6 1.0 2.0 187 187
- 0.31416 1 2 cbr 210 ------- 6 1.0 2.0 187 187
r 0.314168 1 2 cbr 210 ------- 6 1.0 2.0 175 175
+ 0.31584 1 2 cbr 210 ------- 6 1.0 2.0 188 188
- 0.31584 1 2 cbr 210 ------- 6 1.0 2.0 188 188
r 0.315848 1 2 cbr 210 ------- 6 1.0 2.0 176 176
+ 0.31752 1 2 cbr 210 ------- 6 1.0 2.0 189 189
- 0.31752 1 2 cbr 210 ------- 6 1.0 2.0 189 189
r 0.317528 1 2 cbr 210 ------- 6 1.0 2.0 177 177
+ 0.3192 1 2 cbr 210 ------- 6 1.0 2.0 190 190
- 0.3192 1 2 cbr 210 ------- 6 1.0 2.0 190 190
r 0.319208 1 2 cbr 210 ------- 6 1.0 2.0 178 178
+ 0.32088 1 2 cbr 210 ------- 6 1.0 2.0 191 191
- 0.32088 1 2 cbr 210 ------- 6 1.0 2.0 191 191
r 0.320888 1 2 cbr 210 ------- 6 1.0 2.0 179 179
+ 0.32256 1 2 cbr 210 ------- 6 1.0 2.0 192 192
- 0.32256 1 2 cbr 210 ------- 6 1.0 2.0 192 192
r 0.322568 1 2 cbr 210 ------- 6 1.0 2.0 180 180
+ 0.32424 1 2 cbr 210 ------- 6 1.0 2.0 193 193
- 0.32424 1 2 cbr 210 ------- 6 1.0 2.0 193 193
r 0.324248 1 2 cbr 210 ------- 6 1.0 2.0 181 181
+ 0.32592 1 2 cbr 210 ------- 6 1.0 2.0 194 194
- 0.32592 1 2 cbr 210 ------- 6 1.0 2.0 194 194
r 0.325928 1 2 cbr 210 ------- 6 1.0 2.0 182 182
+ 0.3276 1 2 cbr 210 ------- 6 1.0 2.0 195 195
- 0.3276 1 2 cbr 210 ------- 6 1.0 2.0 195 195
r 0.327608 1 2 cbr 210 ------- 6 1.0 2.0 183 183
+ 0.32928 1 2 cbr 210 ------- 6 1.0 2.0 196 196
- 0.32928 1 2 cbr 210 ------- 6 1.0 2.0 196 196
r 0.329288 1 2 cbr 210 ------- 6 1.0 2.0 184 184
+ 0.33096 1 2 cbr 210 ------- 6 1.0 2.0 197 197
- 0.33096 1 2 cbr 210 ------- 6 1.0 2.0 197 197
r 0.330968 1 2 cbr 210 ------- 6 1.0 2.0 185 185
+ 0.33264 1 2 cbr 210 ------- 6 1.0 2.0 198 198
- 0.33264 1 2 cbr 210 ------- 6 1.0 2.0 198 198
r 0.332648 1 2 cbr 210 ------- 6 1.0 2.0 186 186
+ 0.33432 1 2 cbr 210 ------- 6 1.0 2.0 199 199
- 0.33432 1 2 cbr 210 ------- 6 1.0 2.0 199 199
r 0.334328 1 2 cbr 210 ------- 6 1.0 2.0 187 187
+ 0.336 1 2 cbr 210 ------- 6 1.0 2.0 200 200
- 0.336 1 2 cbr 210 ------- 6 1.0 2.0 200 200
r 0.336008 1 2 cbr 210 ------- 6 1.0 2.0 188 188
+ 0.33768 1 2 cbr 210 ------- 6 1.0 2.0 201 201
- 0.33768 1 2 cbr 210 ------- 6 1.0 2.0 201 201
r 0.337688 1 2 cbr 210 ------- 6 1.0 2.0 189 189
+ 0.33936 1 2 cbr 210 ------- 6 1.0 2.0 202 202
- 0.33936 1 2 cbr 210 ------- 6 1.0 2.0 202 202
r 0.339368 1 2 cbr 210 ------- 6 1.0 2.0 190 190
+ 0.34104 1 2 cbr 210 ------- 6 1.0 2.0 203 203
- 0.34104 1 2 cbr 210 ------- 6 1.0 2.0 203 203
r 0.341048 1 2 cbr 210 ------- 6 1.0 2.0 191 191
+ 0.34272 1 2 cbr 210 ------- 6 1.0 2.0 204 204
- 0.34272 1 2 cbr 210 ------- 6 1.0 2.0 204 204
r 0.342728 1 2 cbr 210 ------- 6 1.0 2.0 192 192
+ 0.3444 1 2 cbr 210 ------- 6 1.0 2.0 205 205
- 0.3444 1 2 cbr 210 ------- 6 1.0 2.0 205 205
r 0.344408 1 2 cbr 210 ------- 6 1.0 2.0 193 193
+ 0.34608 1 2 cbr 210 ------- 6 1.0 2.0 206 206
- 0.34608 1 2 cbr 210 ------- 6 1.0 2.0 206 206
r 0.346088 1 2 cbr 210 ------- 6 1.0 2.0 194 194
+ 0.34776 1 2 cbr 210 ------- 6 1.0 2.0 207 207
- 0.34776 1 2 cbr 210 ------- 6 1.0 2.0 207 207
r 0.347768 1 2 cbr 210 ------- 6 1.0 2.0 195 195
+ 0.34944 1 2 cbr 210 ------- 6 1.0 2.0 208 208
- 0.34944 1 2 cbr 210 ------- 6 1.0 2.0 208 208
r 0.349448 1 2 cbr 210 ------- 6 1.0 2.0 196 196
+ 0.35112 1 2 cbr 210 ------- 6 1.0 2.0 209 209
- 0.35112 1 2 cbr 210 ------- 6 1.0 2.0 209 209
r 0.351128 1 2 cbr 210 ------- 6 1.0 2.0 197 197
+ 0.3528 1 2 cbr 210 ------- 6 1.0 2.0 210 210
- 0.3528 1 2 cbr 210 ------- 6 1.0 2.0 210 210
r 0.352808 1 2 cbr 210 ------- 6 1.0 2.0 198 198
+ 0.35448 1 2 cbr 210 ------- 6 1.0 2.0 211 211
- 0.35448 1 2 cbr 210 ------- 6 1.0 2.0 211 211
r 0.354488 1 2 cbr 210 ------- 6 1.0 2.0 199 199
+ 0.35616 1 2 cbr 210 ------- 6 1.0 2.0 212 212
- 0.35616 1 2 cbr 210 ------- 6 1.0 2.0 212 212
r 0.356168 1 2 cbr 210 ------- 6 1.0 2.0 200 200
+ 0.35784 1 2 cbr 210 ------- 6 1.0 2.0 213 213
- 0.35784 1 2 cbr 210 ------- 6 1.0 2.0 213 213
r 0.357848 1 2 cbr 210 ------- 6 1.0 2.0 201 201
+ 0.35952 1 2 cbr 210 ------- 6 1.0 2.0 214 214
- 0.35952 1 2 cbr 210 ------- 6 1.0 2.0 214 214
r 0.359528 1 2 cbr 210 ------- 6 1.0 2.0 202 202
+ 0.3612 1 2 cbr 210 ------- 6 1.0 2.0 215 215
- 0.3612 1 2 cbr 210 ------- 6 1.0 2.0 215 215
r 0.361208 1 2 cbr 210 ------- 6 1.0 2.0 203 203