+ 0 1 2 cbr 210 ------- 6 1.0 2.0 0 0
- 0 1 2 cbr 210 ------- 6 1.0 2.0 0 0
+ 0.00056 1 2 cbr 210 ------- 6 1.0 2.0 1 1
- 0.00056 1 2 cbr 210 ------- 6 1.0 2.0 1 1
+ 0.00112 1 2 cbr 210 ------- 6 1.0 2.0 2 2
- 0.00112 1 2 cbr 210 ------- 6 1.0 2.0 2 2
+ 0.00168 1 2 cbr 210 ------- 6 1.0 2.0 3 3
- 0.00168 1 2 cbr 210 ------- 6 1.0 2.0 3 3
+ 0.00224 1 2 cbr 210 ------- 6 1.0 2.0 4 4
- 0.00224 1 2 cbr 210 ------- 6 1.0 2.0 4 4
+ 0.0028 1 2 cbr 210 ------- 6 1.0 2.0 5 5
- 0.0028 1 2 cbr 210 ------- 6 1.0 2.0 5 5
+ 0.00336 1 2 cbr 210 ------- 6 1.0 2.0 6 6
- 0.00336 1 2 cbr 210 ------- 6 1.0 2.0 6 6
+ 0.00392 1 2 cbr 210 ------- 6 1.0 2.0 7 7
- 0.00392 1 2 cbr 210 ------- 6 1.0 2.0 7 7
+ 0.00448 1 2 cbr 210 ------- 6 1.0 2.0 8 8
- 0.00448 1 2 cbr 210 ------- 6 1.0 2.0 8 8
+ 0.00504 1 2 cbr 210 ------- 6 1.0 2.0 9 9
- 0.00504 1 2 cbr 210 ------- 6 1.0 2.0 9 9
+ 0.0056 1 2 cbr 210 ------- 6 1.0 2.0 10 10
- 0.0056 1 2 cbr 210 ------- 6 1.0 2.0 10 10
+ 0.00616 1 2 cbr 210 ------- 6 1.0 2.0 11 11
- 0.00616 1 2 cbr 210 ------- 6 1.0 2.0 11 11
+ 0.00672 1 2 cbr 210 ------- 6 1.0 2.0 12 12
- 0.00672 1 2 cbr 210 ------- 6 1.0 2.0 12 12
+ 0.00728 1 2 cbr 210 ------- 6 1.0 2.0 13 13
- 0.00728 1 2 cbr 210 ------- 6 1.0 2.0 13 13
+ 0.00784 1 2 cbr 210 ------- 6 1.0 2.0 14 14
- 0.00784 1 2 cbr 210 ------- 6 1.0 2.0 14 14
+ 0.0084 1 2 cbr 210 ------- 6 1.0 2.0 15 15
- 0.0084 1 2 cbr 210 ------- 6 1.0 2.0 15 15
+ 0.00896 1 2 cbr 210 ------- 6 1.0 2.0 16 16
- 0.00896 1 2 cbr 210 ------- 6 1.0 2.0 16 16
+ 0.00952 1 2 cbr 210 ------- 6 1.0 2.0 17 17
- 0.00952 1 2 cbr 210 ------- 6 1.0 2.0 17 17
+ 0.01008 1 2 cbr 210 ------- 6 1.0 2.0 18 18
- 0.01008 1 2 cbr 210 ------- 6 1.0 2.0 18 18
+ 0.01064 1 2 cbr 210 ------- 6 1.0 2.0 19 19
- 0.01064 1 2 cbr 210 ------- 6 1.0 2.0 19 19
+ 0.0112 1 2 cbr 210 ------- 6 1.0 2.0 20 20
- 0.0112 1 2 cbr 210 ------- 6 1.0 2.0 20 20
+ 0.01176 1 2 cbr 210 ------- 6 1.0 2.0 21 21
- 0.01176 1 2 cbr 210 ------- 6 1.0 2.0 21 21
+ 0.01232 1 2 cbr 210 ------- 6 1.0 2.0 22 22
- 0.01232 1 2 cbr 210 ------- 6 1.0 2.0 22 22
+ 0.01288 1 2 cbr 210 ------- 6 1.0 2.0 23 23
- 0.01288 1 2 cbr 210 ------- 6 1.0 2.0 23 23
+ 0.01344 1 2 cbr 210 ------- 6 1.0 2.0 24 24
- 0.01344 1 2 cbr 210 ------- 6 1.0 2.0 24 24
+ 0.014 1 2 cbr 210 ------- 6 1.0 2.0 25 25
- 0.014 1 2 cbr 210 ------- 6 1.0 2.0 25 25
+ 0.01456 1 2 cbr 210 ------- 6 1.0 2.0 26 26
- 0.01456 1 2 cbr 210 ------- 6 1.0 2.0 26 26
+ 0.01512 1 2 cbr 210 ------- 6 1.0 2.0 27 27
- 0.01512 1 2 cbr 210 ------- 6 1.0 2.0 27 27
+ 0.01568 1 2 cbr 210 ------- 6 1.0 2.0 28 28
- 0.01568 1 2 cbr 210 ------- 6 1.0 2.0 28 28
+ 0.01624 1 2 cbr 210 ------- 6 1.0 2.0 29 29
- 0.01624 1 2 cbr 210 ------- 6 1.0 2.0 29 29
+ 0.0168 1 2 cbr 210 ------- 6 1.0 2.0 30 30
- 0.0168 1 2 cbr 210 ------- 6 1.0 2.0 30 30
+ 0.01736 1 2 cbr 210 ------- 6 1.0 2.0 31 31
- 0.01736 1 2 cbr 210 ------- 6 1.0 2.0 31 31
+ 0.01792 1 2 cbr 210 ------- 6 1.0 2.0 32 32
- 0.01792 1 2 cbr 210 ------- 6 1.0 2.0 32 32
+ 0.01848 1 2 cbr 210 ------- 6 1.0 2.0 33 33
- 0.01848 1 2 cbr 210 ------- 6 1.0 2.0 33 33
+ 0.01904 1 2 cbr 210 ------- 6 1.0 2.0 34 34
- 0.01904 1 2 cbr 210 ------- 6 1.0 2.0 34 34
+ 0.0196 1 2 cbr 210 ------- 6 1.0 2.0 35 35
- 0.0196 1 2 cbr 210 ------- 6 1.0 2.0 35 35
+ 0.02016 1 2 cbr 210 ------- 6 1.0 2.0 36 36
- 0.02016 1 2 cbr 210 ------- 6 1.0 2.0 36 36
r 0.020168 1 2 cbr 210 ------- 6 1.0 2.0 0 0
+ 0.02072 1 2 cbr 210 ------- 6 1.0 2.0 37 37
- 0.02072 1 2 cbr 210 ------- 6 1.0 2.0 37 37
r 0.020728 1 2 cbr 210 ------- 6 1.0 2.0 1 1
+ 0.02128 1 2 cbr 210 ------- 6 1.0 2.0 38 38
- 0.02128 1 2 cbr 210 ------- 6 1.0 2.0 38 38
r 0.021288 1 2 cbr 210 ------- 6 1.0 2.0 2 2
+ 0.02184 1 2 cbr 210 ------- 6 1.0 2.0 39 39
- 0.02184 1 2 cbr 210 ------- 6 1.0 2.0 39 39
r 0.021848 1 2 cbr 210 ------- 6 1.0 2.0 3 3
+ 0.0224 1 2 cbr 210 ------- 6 1.0 2.0 40 40
- 0.0224 1 2 cbr 210 ------- 6 1.0 2.0 40 40
r 0.022408 1 2 cbr 210 ------- 6 1.0 2.0 4 4
+ 0.02296 1 2 cbr 210 ------- 6 1.0 2.0 41 41
- 0.02296 1 2 cbr 210 ------- 6 1.0 2.0 41 41
r 0.022968 1 2 cbr 210 ------- 6 1.0 2.0 5 5
+ 0.02352 1 2 cbr 210 ------- 6 1.0 2.0 42 42
- 0.02352 1 2 cbr 210 ------- 6 1.0 2.0 42 42
r 0.023528 1 2 cbr 210 ------- 6 1.0 2.0 6 6
+ 0.02408 1 2 cbr 210 ------- 6 1.0 2.0 43 43
- 0.02408 1 2 cbr 210 ------- 6 1.0 2.0 43 43
r 0.024088 1 2 cbr 210 ------- 6 1.0 2.0 7 7
+ 0.02464 1 2 cbr 210 ------- 6 1.0 2.0 44 44
- 0.02464 1 2 cbr 210 ------- 6 1.0 2.0 44 44
r 0.024648 1 2 cbr 210 ------- 6 1.0 2.0 8 8
+ 0.0252 1 2 cbr 210 ------- 6 1.0 2.0 45 45
- 0.0252 1 2 cbr 210 ------- 6 1.0 2.0 45 45
r 0.025208 1 2 cbr 210 ------- 6 1.0 2.0 9 9
+ 0.02576 1 2 cbr 210 ------- 6 1.0 2.0 46 46
- 0.02576 1 2 cbr 210 ------- 6 1.0 2.0 46 46
r 0.025768 1 2 cbr 210 ------- 6 1.0 2.0 10 10
+ 0.02632 1 2 cbr 210 ------- 6 1.0 2.0 47 47
- 0.02632 1 2 cbr 210 ------- 6 1.0 2.0 47 47
r 0.026328 1 2 cbr 210 ------- 6 1.0 2.0 11 11
+ 0.02688 1 2 cbr 210 ------- 6 1.0 2.0 48 48
- 0.02688 1 2 cbr 210 ------- 6 1.0 2.0 48 48
r 0.026888 1 2 cbr 210 ------- 6 1.0 2.0 12 12
+ 0.02744 1 2 cbr 210 ------- 6 1.0 2.0 49 49
- 0.02744 1 2 cbr 210 ------- 6 1.0 2.0 49 49
r 0.027448 1 2 cbr 210 ------- 6 1.0 2.0 13 13
+ 0.028 1 2 cbr 210 ------- 6 1.0 2.0 50 50
- 0.028 1 2 cbr 210 ------- 6 1.0 2.0 50 50
r 0.028008 1 2 cbr 210 ------- 6 1.0 2.0 14 14
+ 0.02856 1 2 cbr 210 ------- 6 1.0 2.0 51 51
- 0.02856 1 2 cbr 210 ------- 6 1.0 2.0 51 51
r 0.028568 1 2 cbr 210 ------- 6 1.0 2.0 15 15
+ 0.02912 1 2 cbr 210 ------- 6 1.0 2.0 52 52
- 0.02912 1 2 cbr 210 ------- 6 1.0 2.0 52 52
r 0.029128 1 2 cbr 210 ------- 6 1.0 2.0 16 16
+ 0.02968 1 2 cbr 210 ------- 6 1.0 2.0 53 53
- 0.02968 1 2 cbr 210 ------- 6 1.0 2.0 53 53
r 0.029688 1 2 cbr 210 ------- 6 1.0 2.0 17 17
+ 0.03024 1 2 cbr 210 ------- 6 1.0 2.0 54 54
- 0.03024 1 2 cbr 210 ------- 6 1.0 2.0 54 54
r 0.030248 1 2 cbr 210 ------- 6 1.0 2.0 18 18
+ 0.0308 1 2 cbr 210 ------- 6 1.0 2.0 55 55
- 0.0308 1 2 cbr 210 ------- 6 1.0 2.0 55 55
r 0.030808 1 2 cbr 210 ------- 6 1.0 2.0 19 19
+ 0.03136 1 2 cbr 210 ------- 6 1.0 2.0 56 56
- 0.03136 1 2 cbr 210 ------- 6 1.0 2.0 56 56
r 0.031368 1 2 cbr 210 ------- 6 1.0 2.0 20 20
+ 0.03192 1 2 cbr 210 ------- 6 1.0 2.0 57 57
- 0.03192 1 2 cbr 210 ------- 6 1.0 2.0 57 57
r 0.031928 1 2 cbr 210 ------- 6 1.0 2.0 21 21
+ 0.03248 1 2 cbr 210 ------- 6 1.0 2.0 58 58
- 0.03248 1 2 cbr 210 ------- 6 1.0 2.0 58 58
r 0.032488 1 2 cbr 210 ------- 6 1.0 2.0 22 22
+ 0.03304 1 2 cbr 210 ------- 6 1.0 2.0 59 59
- 0.03304 1 2 cbr 210 ------- 6 1.0 2.0 59 59
r 0.033048 1 2 cbr 210 ------- 6 1.0 2.0 23 23
+ 0.0336 1 2 cbr 210 ------- 6 1.0 2.0 60 60
- 0.0336 1 2 cbr 210 ------- 6 1.0 2.0 60 60
r 0.033608 1 2 cbr 210 ------- 6 1.0 2.0 24 24
+ 0.03416 1 2 cbr 210 ------- 6 1.0 2.0 61 61
- 0.03416 1 2 cbr 210 ------- 6 1.0 2.0 61 61
r 0.034168 1 2 cbr 210 ------- 6 1.0 2.0 25 25
+ 0.03472 1 2 cbr 210 ------- 6 1.0 2.0 62 62
- 0.03472 1 2 cbr 210 ------- 6 1.0 2.0 62 62
r 0.034728 1 2 cbr 210 ------- 6 1.0 2.0 26 26
+ 0.03528 1 2 cbr 210 ------- 6 1.0 2.0 63 63
- 0.03528 1 2 cbr 210 ------- 6 1.0 2.0 63 63
r 0.035288 1 2 cbr 210 ------- 6 1.0 2.0 27 27
+ 0.03584 1 2 cbr 210 ------- 6 1.0 2.0 64 64
- 0.03584 1 2 cbr 210 ------- 6 1.0 2.0 64 64
r 0.035848 1 2 cbr 210 ------- 6 1.0 2.0 28 28
+ 0.0364 1 2 cbr 210 ------- 6 1.0 2.0 65 65
- 0.0364 1 2 cbr 210 ------- 6 1.0 2.0 65 65
r 0.036408 1 2 cbr 210 ------- 6 1.0 2.0 29 29
+ 0.03696 1 2 cbr 210 ------- 6 1.0 2.0 66 66
- 0.03696 1 2 cbr 210 ------- 6 1.0 2.0 66 66
r 0.036968 1 2 cbr 210 ------- 6 1.0 2.0 30 30
+ 0.03752 1 2 cbr 210 ------- 6 1.0 2.0 67 67
- 0.03752 1 2 cbr 210 ------- 6 1.0 2.0 67 67
r 0.037528 1 2 cbr 210 ------- 6 1.0 2.0 31 31
+ 0.03808 1 2 cbr 210 ------- 6 1.0 2.0 68 68
- 0.03808 1 2 cbr 210 ------- 6 1.0 2.0 68 68
r 0.038088 1 2 cbr 210 ------- 6 1.0 2.0 32 32
+ 0.03864 1 2 cbr 210 ------- 6 1.0 2.0 69 69
- 0.03864 1 2 cbr 210 ------- 6 1.0 2.0 69 69
r 0.038648 1 2 cbr 210 ------- 6 1.0 2.0 33 33
+ 0.0392 1 2 cbr 210 ------- 6 1.0 2.0 70 70
- 0.0392 1 2 cbr 210 ------- 6 1.0 2.0 70 70
r 0.039208 1 2 cbr 210 ------- 6 1.0 2.0 34 34
+ 0.03976 1 2 cbr 210 ------- 6 1.0 2.0 71 71
- 0.03976 1 2 cbr 210 ------- 6 1.0 2.0 71 71
r 0.039768 1 2 cbr 210 ------- 6 1.0 2.0 35 35
+ 0.04032 1 2 cbr 210 ------- 6 1.0 2.0 72 72
- 0.04032 1 2 cbr 210 ------- 6 1.0 2.0 72 72
r 0.040328 1 2 cbr 210 ------- 6 1.0 2.0 36 36
+ 0.04088 1 2 cbr 210 ------- 6 1.0 2.0 73 73
- 0.04088 1 2 cbr 210 ------- 6 1.0 2.0 73 73
r 0.040888 1 2 cbr 210 ------- 6 1.0 2.0 37 37
+ 0.04144 1 2 cbr 210 ------- 6 1.0 2.0 74 74
- 0.04144 1 2 cbr 210 ------- 6 1.0 2.0 74 74
r 0.041448 1 2 cbr 210 ------- 6 1.0 2.0 38 38
+ 0.042 1 2 cbr 210 ------- 6 1.0 2.0 75 75
- 0.042 1 2 cbr 210 ------- 6 1.0 2.0 75 75
r 0.042008 1 2 cbr 210 ------- 6 1.0 2.0 39 39
+ 0.04256 1 2 cbr 210 ------- 6 1.0 2.0 76 76
- 0.04256 1 2 cbr 210 ------- 6 1.0 2.0 76 76
r 0.042568 1 2 cbr 210 ------- 6 1.0 2.0 40 40
+ 0.04312 1 2 cbr 210 ------- 6 1.0 2.0 77 77
- 0.04312 1 2 cbr 210 ------- 6 1.0 2.0 77 77
r 0.043128 1 2 cbr 210 ------- 6 1.0 2.0 41 41
+ 0.04368 1 2 cbr 210 ------- 6 1.0 2.0 78 78
- 0.04368 1 2 cbr 210 ------- 6 1.0 2.0 78 78
r 0.043688 1 2 cbr 210 ------- 6 1.0 2.0 42 42
+ 0.04424 1 2 cbr 210 ------- 6 1.0 2.0 79 79
- 0.04424 1 2 cbr 210 ------- 6 1.0 2.0 79 79
r 0.044248 1 2 cbr 210 ------- 6 1.0 2.0 43 43
+ 0.0448 1 2 cbr 210 ------- 6 1.0 2.0 80 80
- 0.0448 1 2 cbr 210 ------- 6 1.0 2.0 80 80
r 0.044808 1 2 cbr 210 ------- 6 1.0 2.0 44 44
+ 0.04536 1 2 cbr 210 ------- 6 1.0 2.0 81 81
- 0.04536 1 2 cbr 210 ------- 6 1.0 2.0 81 81
r 0.045368 1 2 cbr 210 ------- 6 1.0 2.0 45 45
+ 0.04592 1 2 cbr 210 ------- 6 1.0 2.0 82 82
- 0.04592 1 2 cbr 210 ------- 6 1.0 2.0 82 82
r 0.045928 1 2 cbr 210 ------- 6 1.0 2.0 46 46
+ 0.04648 1 2 cbr 210 ------- 6 1.0 2.0 83 83
- 0.04648 1 2 cbr 210 ------- 6 1.0 2.0 83 83
r 0.046488 1 2 cbr 210 ------- 6 1.0 2.0 47 47
+ 0.04704 1 2 cbr 210 ------- 6 1.0 2.0 84 84
- 0.04704 1 2 cbr 210 ------- 6 1.0 2.0 84 84
r 0.047048 1 2 cbr 210 ------- 6 1.0 2.0 48 48
+ 0.0476 1 2 cbr 210 ------- 6 1.0 2.0 85 85
- 0.0476 1 2 cbr 210 ------- 6 1.0 2.0 85 85
r 0.047608 1 2 cbr 210 ------- 6 1.0 2.0 49 49
+ 0.04816 1 2 cbr 210 ------- 6 1.0 2.0 86 86
- 0.04816 1 2 cbr 210 ------- 6 1.0 2.0 86 86
r 0.048168 1 2 cbr 210 ------- 6 1.0 2.0 50 50
+ 0.04872 1 2 cbr 210 ------- 6 1.0 2.0 87 87
- 0.04872 1 2 cbr 210 ------- 6 1.0 2.0 87 87
r 0.048728 1 2 cbr 210 ------- 6 1.0 2.0 51 51
+ 0.04928 1 2 cbr 210 ------- 6 1.0 2.0 88 88
- 0.04928 1 2 cbr 210 ------- 6 1.0 2.0 88 88
r 0.049288 1 2 cbr 210 ------- 6 1.0 2.0 52 52
+ 0.04984 1 2 cbr 210 ------- 6 1.0 2.0 89 89
- 0.04984 1 2 cbr 210 ------- 6 1.0 2.0 89 89
r 0.049848 1 2 cbr 210 ------- 6 1.0 2.0 53 53
+ 0.0504 1 2 cbr 210 ------- 6 1.0 2.0 90 90
- 0.0504 1 2 cbr 210 ------- 6 1.0 2.0 90 90
r 0.050408 1 2 cbr 210 ------- 6 1.0 2.0 54 54
+ 0.05096 1 2 cbr 210 ------- 6 1.0 2.0 91 91
- 0.05096 1 2 cbr 210 ------- 6 1.0 2.0 91 91
r 0.050968 1 2 cbr 210 ------- 6 1.0 2.0 55 55
+ 0.05152 1 2 cbr 210 ------- 6 1.0 2.0 92 92
- 0.05152 1 2 cbr 210 ------- 6 1.0 2.0 92 92
r 0.051528 1 2 cbr 210 ------- 6 1.0 2.0 56 56
+ 0.05208 1 2 cbr 210 ------- 6 1.0 2.0 93 93
- 0.05208 1 2 cbr 210 ------- 6 1.0 2.0 93 93
r 0.052088 1 2 cbr 210 ------- 6 1.0 2.0 57 57
+ 0.05264 1 2 cbr 210 ------- 6 1.0 2.0 94 94
- 0.05264 1 2 cbr 210 ------- 6 1.0 2.0 94 94
r 0.052648 1 2 cbr 210 ------- 6 1.0 2.0 58 58
+ 0.0532 1 2 cbr 210 ------- 6 1.0 2.0 95 95
- 0.0532 1 2 cbr 210 ------- 6 1.0 2.0 95 95
r 0.053208 1 2 cbr 210 ------- 6 1.0 2.0 59 59
+ 0.05376 1 2 cbr 210 ------- 6 1.0 2.0 96 96
- 0.05376 1 2 cbr 210 ------- 6 1.0 2.0 96 96
r 0.053768 1 2 cbr 210 ------- 6 1.0 2.0 60 60
+ 0.05432 1 2 cbr 210 ------- 6 1.0 2.0 97 97
- 0.05432 1 2 cbr 210 ------- 6 1.0 2.0 97 97
r 0.054328 1 2 cbr 210 ------- 6 1.0 2.0 61 61
+ 0.05488 1 2 cbr 210 ------- 6 1.0 2.0 98 98
- 0.05488 1 2 cbr 210 ------- 6 1.0 2.0 98 98
r 0.054888 1 2 cbr 210 ------- 6 1.0 2.0 62 62
+ 0.05544 1 2 cbr 210 ------- 6 1.0 2.0 99 99
- 0.05544 1 2 cbr 210 ------- 6 1.0 2.0 99 99
r 0.055448 1 2 cbr 210 ------- 6 1.0 2.0 63 63
+ 0.056 1 2 cbr 210 ------- 6 1.0 2.0 100 100
- 0.056 1 2 cbr 210 ------- 6 1.0 2.0 100 100
r 0.056008 1 2 cbr 210 ------- 6 1.0 2.0 64 64
+ 0.05656 1 2 cbr 210 ------- 6 1.0 2.0 101 101
- 0.05656 1 2 cbr 210 ------- 6 1.0 2.0 101 101
r 0.056568 1 2 cbr 210 ------- 6 1.0 2.0 65 65
+ 0.05712 1 2 cbr 210 ------- 6 1.0 2.0 102 102
- 0.05712 1 2 cbr 210 ------- 6 1.0 2.0 102 102
r 0.057128 1 2 cbr 210 ------- 6 1.0 2.0 66 66
+ 0.05768 1 2 cbr 210 ------- 6 1.0 2.0 103 103
- 0.05768 1 2 cbr 210 ------- 6 1.0 2.0 103 103
r 0.057688 1 2 cbr 210 ------- 6 1.0 2.0 67 67
+ 0.05824 1 2 cbr 210 ------- 6 1.0 2.0 104 104
- 0.05824 1 2 cbr 210 ------- 6 1.0 2.0 104 104
r 0.058248 1 2 cbr 210 ------- 6 1.0 2.0 68 68
+ 0.0588 1 2 cbr 210 ------- 6 1.0 2.0 105 105
- 0.0588 1 2 cbr 210 ------- 6 1.0 2.0 105 105
r 0.058808 1 2 cbr 210 ------- 6 1.0 2.0 69 69
+ 0.05936 1 2 cbr 210 ------- 6 1.0 2.0 106 106
- 0.05936 1 2 cbr 210 ------- 6 1.0 2.0 106 106
r 0.059368 1 2 cbr 210 ------- 6 1.0 2.0 70 70
+ 0.05992 1 2 cbr 210 ------- 6 1.0 2.0 107 107
- 0.05992 1 2 cbr 210 ------- 6 1.0 2.0 107 107
r 0.059928 1 2 cbr 210 ------- 6 1.0 2.0 71 71
+ 0.06048 1 2 cbr 210 ------- 6 1.0 2.0 108 108
- 0.06048 1 2 cbr 210 ------- 6 1.0 2.0 108 108
r 0.060488 1 2 cbr 210 ------- 6 1.0 2.0 72 72
+ 0.06104 1 2 cbr 210 ------- 6 1.0 2.0 109 109
- 0.06104 1 2 cbr 210 ------- 6 1.0 2.0 109 109
r 0.061048 1 2 cbr 210 ------- 6 1.0 2.0 73 73
+ 0.0616 1 2 cbr 210 ------- 6 1.0 2.0 110 110
- 0.0616 1 2 cbr 210 ------- 6 1.0 2.0 110 110
r 0.061608 1 2 cbr 210 ------- 6 1.0 2.0 74 74
+ 0.06216 1 2 cbr 210 ------- 6 1.0 2.0 111 111
- 0.06216 1 2 cbr 210 ------- 6 1.0 2.0 111 111
r 0.062168 1 2 cbr 210 ------- 6 1.0 2.0 75 75
+ 0.06272 1 2 cbr 210 ------- 6 1.0 2.0 112 112
- 0.06272 1 2 cbr 210 ------- 6 1.0 2.0 112 112
r 0.062728 1 2 cbr 210 ------- 6 1.0 2.0 76 76
+ 0.06328 1 2 cbr 210 ------- 6 1.0 2.0 113 113
- 0.06328 1 2 cbr 210 ------- 6 1.0 2.0 113 113
r 0.063288 1 2 cbr 210 ------- 6 1.0 2.0 77 77
+ 0.06384 1 2 cbr 210 ------- 6 1.0 2.0 114 114
- 0.06384 1 2 cbr 210 ------- 6 1.0 2.0 114 114
r 0.063848 1 2 cbr 210 ------- 6 1.0 2.0 78 78
+ 0.0644 1 2 cbr 210 ------- 6 1.0 2.0 115 115
- 0.0644 1 2 cbr 210 ------- 6 1.0 2.0 115 115
r 0.064408 1 2 cbr 210 ------- 6 1.0 2.0 79 79
+ 0.06496 1 2 cbr 210 ------- 6 1.0 2.0 116 116
- 0.06496 1 2 cbr 210 ------- 6 1.0 2.0 116 116
r 0.064968 1 2 cbr 210 ------- 6 1.0 2.0 80 80
+ 0.06552 1 2 cbr 210 ------- 6 1.0 2.0 117 117
- 0.06552 1 2 cbr 210 ------- 6 1.0 2.0 117 117
r 0.065528 1 2 cbr 210 ------- 6 1.0 2.0 81 81
+ 0.06608 1 2 cbr 210 ------- 6 1.0 2.0 118 118
- 0.06608 1 2 cbr 210 ------- 6 1.0 2.0 118 118
r 0.066088 1 2 cbr 210 ------- 6 1.0 2.0 82 82
+ 0.06664 1 2 cbr 210 ------- 6 1.0 2.0 119 119
- 0.06664 1 2 cbr 210 ------- 6 1.0 2.0 119 119
r 0.066648 1 2 cbr 210 ------- 6 1.0 2.0 83 83
+ 0.0672 1 2 cbr 210 ------- 6 1.0 2.0 120 120
- 0.0672 1 2 cbr 210 ------- 6 1.0 2.0 120 120
r 0.067208 1 2 cbr 210 ------- 6 1.0 2.0 84 84
+ 0.06776 1 2 cbr 210 ------- 6 1.0 2.0 121 121
- 0.06776 1 2 cbr 210 ------- 6 1.0 2.0 121 121
r 0.067768 1 2 cbr 210 ------- 6 1.0 2.0 85 85
+ 0.06832 1 2 cbr 210 ------- 6 1.0 2.0 122 122
- 0.06832 1 2 cbr 210 ------- 6 1.0 2.0 122 122
r 0.068328 1 2 cbr 210 ------- 6 1.0 2.0 86 86
+ 0.06888 1 2 cbr 210 ------- 6 1.0 2.0 123 123
- 0.06888 1 2 cbr 210 ------- 6 1.0 2.0 123 123
r 0.068888 1 2 cbr 210 ------- 6 1.0 2.0 87 87
+ 0.06944 1 2 cbr 210 ------- 6 1.0 2.0 124 124
- 0.06944 1 2 cbr 210 ------- 6 1.0 2.0 124 124
r 0.069448 1 2 cbr 210 ------- 6 1.0 2.0 88 88
+ 0.07 1 2 cbr 210 ------- 6 1.0 2.0 125 125
- 0.07 1 2 cbr 210 ------- 6 1.0 2.0 125 125
r 0.070008 1 2 cbr 210 ------- 6 1.0 2.0 89 89
+ 0.07056 1 2 cbr 210 ------- 6 1.0 2.0 126 126
- 0.07056 1 2 cbr 210 ------- 6 1.0 2.0 126 126
r 0.070568 1 2 cbr 210 ------- 6 1.0 2.0 90 90
+ 0.07112 1 2 cbr 210 ------- 6 1.0 2.0 127 127
- 0.07112 1 2 cbr 210 ------- 6 1.0 2.0 127 127
r 0.071128 1 2 cbr 210 ------- 6 1.0 2.0 91 91
+ 0.07168 1 2 cbr 210 ------- 6 1.0 2.0 128 128
- 0.07168 1 2 cbr 210 ------- 6 1.0 2.0 128 128
r 0.071688 1 2 cbr 210 ------- 6 1.0 2.0 92 92
+ 0.07224 1 2 cbr 210 ------- 6 1.0 2.0 129 129
- 0.07224 1 2 cbr 210 ------- 6 1.0 2.0 129 129
r 0.072248 1 2 cbr 210 ------- 6 1.0 2.0 93 93
+ 0.0728 1 2 cbr 210 ------- 6 1.0 2.0 130 130
- 0.0728 1 2 cbr 210 ------- 6 1.0 2.0 130 130
r 0.072808 1 2 cbr 210 ------- 6 1.0 2.0 94 94
+ 0.07336 1 2 cbr 210 ------- 6 1.0 2.0 131 131
- 0.07336 1 2 cbr 210 ------- 6 1.0 2.0 131 131
r 0.073368 1 2 cbr 210 ------- 6 1.0 2.0 95 95
+ 0.07392 1 2 cbr 210 ------- 6 1.0 2.0 132 132
- 0.07392 1 2 cbr 210 ------- 6 1.0 2.0 132 132
r 0.073928 1 2 cbr 210 ------- 6 1.0 2.0 96 96
+ 0.07448 1 2 cbr 210 ------- 6 1.0 2.0 133 133
- 0.07448 1 2 cbr 210 ------- 6 1.0 2.0 133 133
r 0.074488 1 2 cbr 210 ------- 6 1.0 2.0 97 97
+ 0.07504 1 2 cbr 210 ------- 6 1.0 2.0 134 134
- 0.07504 1 2 cbr 210 ------- 6 1.0 2.0 134 134
r 0.075048 1 2 cbr 210 ------- 6 1.0 2.0 98 98
+ 0.0756 1 2 cbr 210 ------- 6 1.0 2.0 135 135
- 0.0756 1 2 cbr 210 ------- 6 1.0 2.0 135 135
r 0.075608 1 2 cbr 210 ------- 6 1.0 2.0 99 99
+ 0.07616 1 2 cbr 210 ------- 6 1.0 2.0 136 136
- 0.07616 1 2 cbr 210 ------- 6 1.0 2.0 136 136
r 0.076168 1 2 cbr 210 ------- 6 1.0 2.0 100 100
+ 0.07672 1 2 cbr 210 ------- 6 1.0 2.0 137 137
- 0.07672 1 2 cbr 210 ------- 6 1.0 2.0 137 137
r 0.076728 1 2 cbr 210 ------- 6 1.0 2.0 101 101
+ 0.07728 1 2 cbr 210 ------- 6 1.0 2.0 138 138
- 0.07728 1 2 cbr 210 ------- 6 1.0 2.0 138 138
r 0.077288 1 2 cbr 210 ------- 6 1.0 2.0 102 102
+ 0.07784 1 2 cbr 210 ------- 6 1.0 2.0 139 139
- 0.07784 1 2 cbr 210 ------- 6 1.0 2.0 139 139
r 0.077848 1 2 cbr 210 ------- 6 1.0 2.0 103 103
+ 0.0784 1 2 cbr 210 ------- 6 1.0 2.0 140 140
- 0.0784 1 2 cbr 210 ------- 6 1.0 2.0 140 140
r 0.078408 1 2 cbr 210 ------- 6 1.0 2.0 104 104
+ 0.07896 1 2 cbr 210 ------- 6 1.0 2.0 141 141
- 0.07896 1 2 cbr 210 ------- 6 1.0 2.0 141 141
r 0.078968 1 2 cbr 210 ------- 6 1.0 2.0 105 105
+ 0.07952 1 2 cbr 210 ------- 6 1.0 2.0 142 142
- 0.07952 1 2 cbr 210 ------- 6 1.0 2.0 142 142
r 0.079528 1 2 cbr 210 ------- 6 1.0 2.0 106 106
+ 0.08008 1 2 cbr 210 ------- 6 1.0 2.0 143 143
- 0.08008 1 2 cbr 210 ------- 6 1.0 2.0 143 143
r 0.080088 1 2 cbr 210 ------- 6 1.0 2.0 107 107
+ 0.08064 1 2 cbr 210 ------- 6 1.0 2.0 144 144
- 0.08064 1 2 cbr 210 ------- 6 1.0 2.0 144 144
r 0.080648 1 2 cbr 210 ------- 6 1.0 2.0 108 108
+ 0.0812 1 2 cbr 210 ------- 6 1.0 2.0 145 145
- 0.0812 1 2 cbr 210 ------- 6 1.0 2.0 145 145
r 0.081208 1 2 cbr 210 ------- 6 1.0 2.0 109 109
+ 0.08176 1 2 cbr 210 ------- 6 1.0 2.0 146 146
- 0.08176 1 2 cbr 210 ------- 6 1.0 2.0 146 146
r 0.081768 1 2 cbr 210 ------- 6 1.0 2.0 110 110
+ 0.08232 1 2 cbr 210 ------- 6 1.0 2.0 147 147
- 0.08232 1 2 cbr 210 ------- 6 1.0 2.0 147 147
r 0.082328 1 2 cbr 210 ------- 6 1.0 2.0 111 111
+ 0.08288 1 2 cbr 210 ------- 6 1.0 2.0 148 148
- 0.08288 1 2 cbr 210 ------- 6 1.0 2.0 148 148
r 0.082888 1 2 cbr 210 ------- 6 1.0 2.0 112 112
+ 0.08344 1 2 cbr 210 ------- 6 1.0 2.0 149 149
- 0.08344 1 2 cbr 210 ------- 6 1.0 2.0 149 149
r 0.083448 1 2 cbr 210 ------- 6 1.0 2.0 113 113
+ 0.084 1 2 cbr 210 ------- 6 1.0 2.0 150 150
- 0.084 1 2 cbr 210 ------- 6 1.0 2.0 150 150
r 0.084008 1 2 cbr 210 ------- 6 1.0 2.0 114 114
+ 0.08456 1 2 cbr 210 ------- 6 1.0 2.0 151 151
- 0.08456 1 2 cbr 210 ------- 6 1.0 2.0 151 151
r 0.084568 1 2 cbr 210 ------- 6 1.0 2.0 115 115
+ 0.08512 1 2 cbr 210 ------- 6 1.0 2.0 152 152
- 0.08512 1 2 cbr 210 ------- 6 1.0 2.0 152 152
r 0.085128 1 2 cbr 210 ------- 6 1.0 2.0 116 116
+ 0.08568 1 2 cbr 210 ------- 6 1.0 2.0 153 153
- 0.08568 1 2 cbr 210 ------- 6 1.0 2.0 153 153
r 0.085688 1 2 cbr 210 ------- 6 1.0 2.0 117 117
+ 0.08624 1 2 cbr 210 ------- 6 1.0 2.0 154 154
- 0.08624 1 2 cbr 210 ------- 6 1.0 2.0 154 154
r 0.086248 1 2 cbr 210 ------- 6 1.0 2.0 118 118
+ 0.0868 1 2 cbr 210 ------- 6 1.0 2.0 155 155
- 0.0868 1 2 cbr 210 ------- 6 1.0 2.0 155 155
r 0.086808 1 2 cbr 210 ------- 6 1.0 2.0 119 119
+ 0.08736 1 2 cbr 210 ------- 6 1.0 2.0 156 156
- 0.08736 1 2 cbr 210 ------- 6 1.0 2.0 156 156
r 0.087368 1 2 cbr 210 ------- 6 1.0 2.0 120 120
+ 0.08792 1 2 cbr 210 ------- 6 1.0 2.0 157 157
- 0.08792 1 2 cbr 210 ------- 6 1.0 2.0 157 157
r 0.087928 1 2 cbr 210 ------- 6 1.0 2.0 121 121
+ 0.08848 1 2 cbr 210 ------- 6 1.0 2.0 158 158
- 0.08848 1 2 cbr 210 ------- 6 1.0 2.0 158 158
r 0.088488 1 2 cbr 210 ------- 6 1.0 2.0 122 122
+ 0.08904 1 2 cbr 210 ------- 6 1.0 2.0 159 159
- 0.08904 1 2 cbr 210 ------- 6 1.0 2.0 159 159
r 0.089048 1 2 cbr 210 ------- 6 1.0 2.0 123 123
+ 0.0896 1 2 cbr 210 ------- 6 1.0 2.0 160 160
- 0.0896 1 2 cbr 210 ------- 6 1.0 2.0 160 160
r 0.089608 1 2 cbr 210 ------- 6 1.0 2.0 124 124
+ 0.09016 1 2 cbr 210 ------- 6 1.0 2.0 161 161
- 0.09016 1 2 cbr 210 ------- 6 1.0 2.0 161 161
r 0.090168 1 2 cbr 210 ------- 6 1.0 2.0 125 125
+ 0.09072 1 2 cbr 210 ------- 6 1.0 2.0 162 162
- 0.09072 1 2 cbr 210 ------- 6 1.0 2.0 162 162
r 0.090728 1 2 cbr 210 ------- 6 1.0 2.0 126 126
+ 0.09128 1 2 cbr 210 ------- 6 1.0 2.0 163 163
- 0.09128 1 2 cbr 210 ------- 6 1.0 2.0 163 163
r 0.091288 1 2 cbr 210 ------- 6 1.0 2.0 127 127
+ 0.09184 1 2 cbr 210 ------- 6 1.0 2.0 164 164
- 0.09184 1 2 cbr 210 ------- 6 1.0 2.0 164 164
r 0.091848 1 2 cbr 210 ------- 6 1.0 2.0 128 128
+ 0.0924 1 2 cbr 210 ------- 6 1.0 2.0 165 165
- 0.0924 1 2 cbr 210 ------- 6 1.0 2.0 165 165
r 0.092408 1 2 cbr 210 ------- 6 1.0 2.0 129 129
+ 0.09296 1 2 cbr 210 ------- 6 1.0 2.0 166 166
- 0.09296 1 2 cbr 210 ------- 6 1.0 2.0 166 166
r 0.092968 1 2 cbr 210 ------- 6 1.0 2.0 130 130
+ 0.09352 1 2 cbr 210 ------- 6 1.0 2.0 167 167
- 0.09352 1 2 cbr 210 ------- 6 1.0 2.0 167 167
r 0.093528 1 2 cbr 210 ------- 6 1.0 2.0 131 131
+ 0.09408 1 2 cbr 210 ------- 6 1.0 2.0 168 168
- 0.09408 1 2 cbr 210 ------- 6 1.0 2.0 168 168
r 0.094088 1 2 cbr 210 ------- 6 1.0 2.0 132 132
+ 0.09464 1 2 cbr 210 ------- 6 1.0 2.0 169 169
- 0.09464 1 2 cbr 210 ------- 6 1.0 2.0 169 169
r 0.094648 1 2 cbr 210 ------- 6 1.0 2.0 133 133
+ 0.0952 1 2 cbr 210 ------- 6 1.0 2.0 170 170
- 0.0952 1 2 cbr 210 ------- 6 1.0 2.0 170 170
r 0.095208 1 2 cbr 210 ------- 6 1.0 2.0 134 134
+ 0.09576 1 2 cbr 210 ------- 6 1.0 2.0 171 171
- 0.09576 1 2 cbr 210 ------- 6 1.0 2.0 171 171
r 0.095768 1 2 cbr 210 ------- 6 1.0 2.0 135 135
+ 0.09632 1 2 cbr 210 ------- 6 1.0 2.0 172 172
- 0.09632 1 2 cbr 210 ------- 6 1.0 2.0 172 172
r 0.096328 1 2 cbr 210 ------- 6 1.0 2.0 136 136
+ 0.09688 1 2 cbr 210 ------- 6 1.0 2.0 173 173
- 0.09688 1 2 cbr 210 ------- 6 1.0 2.0 173 173
r 0.096888 1 2 cbr 210 ------- 6 1.0 2.0 137 137
+ 0.09744 1 2 cbr 210 ------- 6 1.0 2.0 174 174
- 0.09744 1 2 cbr 210 ------- 6 1.0 2.0 174 174
r 0.097448 1 2 cbr 210 ------- 6 1.0 2.0 138 138
+ 0.098 1 2 cbr 210 ------- 6 1.0 2.0 175 175
- 0.098 1 2 cbr 210 ------- 6 1.0 2.0 175 175
r 0.098008 1 2 cbr 210 ------- 6 1.0 2.0 139 139
+ 0.09856 1 2 cbr 210 ------- 6 1.0 2.0 176 176
- 0.09856 1 2 cbr 210 ------- 6 1.0 2.0 176 176
r 0.098568 1 2 cbr 210 ------- 6 1.0 2.0 140 140
+ 0.09912 1 2 cbr 210 ------- 6 1.0 2.0 177 177
- 0.09912 1 2 cbr 210 ------- 6 1.0 2.0 177 177
r 0.099128 1 2 cbr 210 ------- 6 1.0 2.0 141 141
+ 0.09968 1 2 cbr 210 ------- 6 1.0 2.0 178 178
- 0.09968 1 2 cbr 210 ------- 6 1.0 2.0 178 178
r 0.099688 1 2 cbr 210 ------- 6 1.0 2.0 142 142
+ 0.10024 1 2 cbr 210 ------- 6 1.0 2.0 179 179
- 0.10024 1 2 cbr 210 ------- 6 1.0 2.0 179 179
r 0.100248 1 2 cbr 210 ------- 6 1.0 2.0 143 143
+ 0.1008 1 2 cbr 210 ------- 6 1.0 2.0 180 180
- 0.1008 1 2 cbr 210 ------- 6 1.0 2.0 180 180
r 0.100808 1 2 cbr 210 ------- 6 1.0 2.0 144 144
+ 0.10136 1 2 cbr 210 ------- 6 1.0 2.0 181 181
- 0.10136 1 2 cbr 210 ------- 6 1.0 2.0 181 181
r 0.101368 1 2 cbr 210 ------- 6 1.0 2.0 145 145
+ 0.10192 1 2 cbr 210 ------- 6 1.0 2.0 182 182
- 0.10192 1 2 cbr 210 ------- 6 1.0 2.0 182 182
r 0.101928 1 2 cbr 210 ------- 6 1.0 2.0 146 146
+ 0.10248 1 2 cbr 210 ------- 6 1.0 2.0 183 183
- 0.10248 1 2 cbr 210 ------- 6 1.0 2.0 183 183
r 0.102488 1 2 cbr 210 ------- 6 1.0 2.0 147 147
+ 0.10304 1 2 cbr 210 ------- 6 1.0 2.0 184 184
- 0.10304 1 2 cbr 210 ------- 6 1.0 2.0 184 184
r 0.103048 1 2 cbr 210 ------- 6 1.0 2.0 148 148
+ 0.1036 1 2 cbr 210 ------- 6 1.0 2.0 185 185
- 0.1036 1 2 cbr 210 ------- 6 1.0 2.0 185 185
r 0.103608 1 2 cbr 210 ------- 6 1.0 2.0 149 149
+ 0.10416 1 2 cbr 210 ------- 6 1.0 2.0 186 186
- 0.10416 1 2 cbr 210 ------- 6 1.0 2.0 186 186
r 0.104168 1 2 cbr 210 ------- 6 1.0 2.0 150 150
+ 0.10472 1 2 cbr 210 ------- 6 1.0 2.0 187 187
- 0.10472 1 2 cbr 210 ------- 6 1.0 2.0 187 187
r 0.104728 1 2 cbr 210 ------- 6 1.0 2.0 151 151
+ 0.10528 1 2 cbr 210 ------- 6 1.0 2.0 188 188
- 0.10528 1 2 cbr 210 ------- 6 1.0 2.0 188 188
r 0.105288 1 2 cbr 210 ------- 6 1.0 2.0 152 152
+ 0.10584 1 2 cbr 210 ------- 6 1.0 2.0 189 189
- 0.10584 1 2 cbr 210 ------- 6 1.0 2.0 189 189
r 0.105848 1 2 cbr 210 ------- 6 1.0 2.0 153 153
+ 0.1064 1 2 cbr 210 ------- 6 1.0 2.0 190 190
- 0.1064 1 2 cbr 210 ------- 6 1.0 2.0 190 190
r 0.106408 1 2 cbr 210 ------- 6 1.0 2.0 154 154
+ 0.10696 1 2 cbr 210 ------- 6 1.0 2.0 191 191
- 0.10696 1 2 cbr 210 ------- 6 1.0 2.0 191 191
r 0.106968 1 2 cbr 210 ------- 6 1.0 2.0 155 155
+ 0.10752 1 2 cbr 210 ------- 6 1.0 2.0 192 192
- 0.10752 1 2 cbr 210 ------- 6 1.0 2.0 192 192
r 0.107528 1 2 cbr 210 ------- 6 1.0 2.0 156 156
+ 0.10808 1 2 cbr 210 ------- 6 1.0 2.0 193 193
- 0.10808 1 2 cbr 210 ------- 6 1.0 2.0 193 193
r 0.108088 1 2 cbr 210 ------- 6 1.0 2.0 157 157
+ 0.10864 1 2 cbr 210 ------- 6 1.0 2.0 194 194
- 0.10864 1 2 cbr 210 ------- 6 1.0 2.0 194 194
r 0.108648 1 2 cbr 210 ------- 6 1.0 2.0 158 158
+ 0.1092 1 2 cbr 210 ------- 6 1.0 2.0 195 195
- 0.1092 1 2 cbr 210 ------- 6 1.0 2.0 195 195
r 0.109208 1 2 cbr 210 ------- 6 1.0 2.0 159 159
+ 0.10976 1 2 cbr 210 ------- 6 1.0 2.0 196 196
- 0.10976 1 2 cbr 210 ------- 6 1.0 2.0 196 196
r 0.109768 1 2 cbr 210 ------- 6 1.0 2.0 160 160
+ 0.11032 1 2 cbr 210 ------- 6 1.0 2.0 197 197
- 0.11032 1 2 cbr 210 ------- 6 1.0 2.0 197 197
r 0.110328 1 2 cbr 210 ------- 6 1.0 2.0 161 161
+ 0.11088 1 2 cbr 210 ------- 6 1.0 2.0 198 198
- 0.11088 1 2 cbr 210 ------- 6 1.0 2.0 198 198
r 0.110888 1 2 cbr 210 ------- 6 1.0 2.0 162 162
+ 0.11144 1 2 cbr 210 ------- 6 1.0 2.0 199 199
- 0.11144 1 2 cbr 210 ------- 6 1.0 2.0 199 199
r 0.111448 1 2 cbr 210 ------- 6 1.0 2.0 163 163
+ 0.112 1 2 cbr 210 ------- 6 1.0 2.0 200 200
- 0.112 1 2 cbr 210 ------- 6 1.0 2.0 200 200
r 0.112008 1 2 cbr 210 ------- 6 1.0 2.0 164 164
+ 0.11256 1 2 cbr 210 ------- 6 1.0 2.0 201 201
- 0.11256 1 2 cbr 210 ------- 6 1.0 2.0 201 201
r 0.112568 1 2 cbr 210 ------- 6 1.0 2.0 165 165
+ 0.11312 1 2 cbr 210 ------- 6 1.0 2.0 202 202
- 0.11312 1 2 cbr 210 ------- 6 1.0 2.0 202 202
r 0.113128 1 2 cbr 210 ------- 6 1.0 2.0 166 166
+ 0.11368 1 2 cbr 210 ------- 6 1.0 2.0 203 203
- 0.11368 1 2 cbr 210 ------- 6 1.0 2.0 203 203
r 0.113688 1 2 cbr 210 ------- 6 1.0 2.0 167 167
+ 0.11424 1 2 cbr 210 ------- 6 1.0 2.0 204 204
- 0.11424 1 2 cbr 210 ------- 6 1.0 2.0 204 204
r 0.114248 1 2 cbr 210 ------- 6 1.0 2.0 168 168
+ 0.1148 1 2 cbr 210 ------- 6 1.0 2.0 205 205
- 0.1148 1 2 cbr 210 ------- 6 1.0 2.0 205 205
r 0.114808 1 2 cbr 210 ------- 6 1.0 2.0 169 169
+ 0.11536 1 2 cbr 210 ------- 6 1.0 2.0 206 206
- 0.11536 1 2 cbr 210 ------- 6 1.0 2.0 206 206
r 0.115368 1 2 cbr 210 ------- 6 1.0 2.0 170 170
+ 0.11592 1 2 cbr 210 ------- 6 1.0 2.0 207 207
- 0.11592 1 2 cbr 210 ------- 6 1.0 2.0 207 207
r 0.115928 1 2 cbr 210 ------- 6 1.0 2.0 171 171
+ 0.11648 1 2 cbr 210 ------- 6 1.0 2.0 208 208
- 0.11648 1 2 cbr 210 ------- 6 1.0 2.0 208 208
r 0.116488 1 2 cbr 210 ------- 6 1.0 2.0 172 172
+ 0.11704 1 2 cbr 210 ------- 6 1.0 2.0 209 209
- 0.11704 1 2 cbr 210 ------- 6 1.0 2.0 209 209
r 0.117048 1 2 cbr 210 ------- 6 1.0 2.0 173 173
+ 0.1176 1 2 cbr 210 ------- 6 1.0 2.0 210 210
- 0.1176 1 2 cbr 210 ------- 6 1.0 2.0 210 210
r 0.117608 1 2 cbr 210 ------- 6 1.0 2.0 174 174
+ 0.11816 1 2 cbr 210 ------- 6 1.0 2.0 211 211
- 0.11816 1 2 cbr 210 ------- 6 1.0 2.0 211 211
r 0.118168 1 2 cbr 210 ------- 6 1.0 2.0 175 175
+ 0.11872 1 2 cbr 210 ------- 6 1.0 2.0 212 212
- 0.11872 1 2 cbr 210 ------- 6 1.0 2.0 212 212
r 0.118728 1 2 cbr 210 ------- 6 1.0 2.0 176 176
+ 0.11928 1 2 cbr 210 ------- 6 1.0 2.0 213 213
- 0.11928 1 2 cbr 210 ------- 6 1.0 2.0 213 213
r 0.119288 1 2 cbr 210 ------- 6 1.0 2.0 177 177
+ 0.11984 1 2 cbr 210 ------- 6 1.0 2.0 214 214
- 0.11984 1 2 cbr 210 ------- 6 1.0 2.0 214 214
r 0.119848 1 2 cbr 210 ------- 6 1.0 2.0 178 178
+ 0.1204 1 2 cbr 210 ------- 6 1.0 2.0 215 215
- 0.1204 1 2 cbr 210 ------- 6 1.0 2.0 215 215
r 0.120408 1 2 cbr 210 ------- 6 1.0 2.0 179 179
+ 0.12096 1 2 cbr 210 ------- 6 1.0 2.0 216 216
- 0.12096 1 2 cbr 210 ------- 6 1.0 2.0 216 216
r 0.120968 1 2 cbr 210 ------- 6 1.0 2.0 180 180
+ 0.12152 1 2 cbr 210 ------- 6 1.0 2.0 217 217
- 0.12152 1 2 cbr 210 ------- 6 1.0 2.0 217 217
r 0.121528 1 2 cbr 210 ------- 6 1.0 2.0 181 181
+ 0.12208 1 2 cbr 210 ------- 6 1.0 2.0 218 218
- 0.12208 1 2 cbr 210 ------- 6 1.0 2.0 218 218
r 0.122088 1 2 cbr 210 ------- 6 1.0 2.0 182 182
+ 0.12264 1 2 cbr 210 ------- 6 1.0 2.0 219 219
- 0.12264 1 2 cbr 210 ------- 6 1.0 2.0 219 219
r 0.122648 1 2 cbr 210 ------- 6 1.0 2.0 183 183
+ 0.1232 1 2 cbr 210 ------- 6 1.0 2.0 220 220
- 0.1232 1 2 cbr 210 ------- 6 1.0 2.0 220 220
r 0.123208 1 2 cbr 210 ------- 6 1.0 2.0 184 184
+ 0.12376 1 2 cbr 210 ------- 6 1.0 2.0 221 221
- 0.12376 1 2 cbr 210 ------- 6 1.0 2.0 221 221
r 0.123768 1 2 cbr 210 ------- 6 1.0 2.0 185 185
+ 0.12432 1 2 cbr 210 ------- 6 1.0 2.0 222 222
- 0.12432 1 2 cbr 210 ------- 6 1.0 2.0 222 222
r 0.124328 1 2 cbr 210 ------- 6 1.0 2.0 186 186
+ 0.12488 1 2 cbr 210 ------- 6 1.0 2.0 223 223
- 0.12488 1 2 cbr 210 ------- 6 1.0 2.0 223 223
r 0.124888 1 2 cbr 210 ------- 6 1.0 2.0 187 187
+ 0.12544 1 2 cbr 210 ------- 6 1.0 2.0 224 224