+ 0 1 2 cbr 210 ------- 6 1.0 2.0 0 0
- 0 1 2 cbr 210 ------- 6 1.0 2.0 0 0
+ 0.000336 1 2 cbr 210 ------- 6 1.0 2.0 1 1
+ 0.000672 1 2 cbr 210 ------- 6 1.0 2.0 2 2
+ 0.001008 1 2 cbr 210 ------- 6 1.0 2.0 3 3
+ 0.001344 1 2 cbr 210 ------- 6 1.0 2.0 4 4
+ 0.00168 1 2 cbr 210 ------- 6 1.0 2.0 5 5
- 0.00168 1 2 cbr 210 ------- 6 1.0 2.0 1 1
+ 0.002016 1 2 cbr 210 ------- 6 1.0 2.0 6 6
+ 0.002352 1 2 cbr 210 ------- 6 1.0 2.0 7 7
+ 0.002688 1 2 cbr 210 ------- 6 1.0 2.0 8 8
+ 0.003024 1 2 cbr 210 ------- 6 1.0 2.0 9 9
+ 0.00336 1 2 cbr 210 ------- 6 1.0 2.0 10 10
- 0.00336 1 2 cbr 210 ------- 6 1.0 2.0 2 2
+ 0.003696 1 2 cbr 210 ------- 6 1.0 2.0 11 11
+ 0.004032 1 2 cbr 210 ------- 6 1.0 2.0 12 12
+ 0.004368 1 2 cbr 210 ------- 6 1.0 2.0 13 13
+ 0.004704 1 2 cbr 210 ------- 6 1.0 2.0 14 14
- 0.00504 1 2 cbr 210 ------- 6 1.0 2.0 3 3
+ 0.00504 1 2 cbr 210 ------- 6 1.0 2.0 15 15
+ 0.005376 1 2 cbr 210 ------- 6 1.0 2.0 16 16
+ 0.005712 1 2 cbr 210 ------- 6 1.0 2.0 17 17
+ 0.006048 1 2 cbr 210 ------- 6 1.0 2.0 18 18
+ 0.006384 1 2 cbr 210 ------- 6 1.0 2.0 19 19
- 0.00672 1 2 cbr 210 ------- 6 1.0 2.0 4 4
+ 0.00672 1 2 cbr 210 ------- 6 1.0 2.0 20 20
+ 0.007056 1 2 cbr 210 ------- 6 1.0 2.0 21 21
+ 0.007392 1 2 cbr 210 ------- 6 1.0 2.0 22 22
+ 0.007728 1 2 cbr 210 ------- 6 1.0 2.0 23 23
+ 0.008064 1 2 cbr 210 ------- 6 1.0 2.0 24 24
d 0.008064 1 2 cbr 210 ------- 6 1.0 2.0 24 24
- 0.0084 1 2 cbr 210 ------- 6 1.0 2.0 5 5
+ 0.0084 1 2 cbr 210 ------- 6 1.0 2.0 25 25
+ 0.008736 1 2 cbr 210 ------- 6 1.0 2.0 26 26
d 0.008736 1 2 cbr 210 ------- 6 1.0 2.0 26 26
+ 0.009072 1 2 cbr 210 ------- 6 1.0 2.0 27 27
d 0.009072 1 2 cbr 210 ------- 6 1.0 2.0 27 27
+ 0.009408 1 2 cbr 210 ------- 6 1.0 2.0 28 28
d 0.009408 1 2 cbr 210 ------- 6 1.0 2.0 28 28
+ 0.009744 1 2 cbr 210 ------- 6 1.0 2.0 29 29
d 0.009744 1 2 cbr 210 ------- 6 1.0 2.0 29 29
+ 0.01008 1 2 cbr 210 ------- 6 1.0 2.0 30 30
d 0.01008 1 2 cbr 210 ------- 6 1.0 2.0 30 30
- 0.01008 1 2 cbr 210 ------- 6 1.0 2.0 6 6
+ 0.010416 1 2 cbr 210 ------- 6 1.0 2.0 31 31
+ 0.010752 1 2 cbr 210 ------- 6 1.0 2.0 32 32
d 0.010752 1 2 cbr 210 ------- 6 1.0 2.0 32 32
+ 0.011088 1 2 cbr 210 ------- 6 1.0 2.0 33 33
d 0.011088 1 2 cbr 210 ------- 6 1.0 2.0 33 33
+ 0.011424 1 2 cbr 210 ------- 6 1.0 2.0 34 34
d 0.011424 1 2 cbr 210 ------- 6 1.0 2.0 34 34
+ 0.01176 1 2 cbr 210 ------- 6 1.0 2.0 35 35
d 0.01176 1 2 cbr 210 ------- 6 1.0 2.0 35 35
- 0.01176 1 2 cbr 210 ------- 6 1.0 2.0 7 7
+ 0.012096 1 2 cbr 210 ------- 6 1.0 2.0 36 36
+ 0.012432 1 2 cbr 210 ------- 6 1.0 2.0 37 37
d 0.012432 1 2 cbr 210 ------- 6 1.0 2.0 37 37
+ 0.012768 1 2 cbr 210 ------- 6 1.0 2.0 38 38
d 0.012768 1 2 cbr 210 ------- 6 1.0 2.0 38 38
+ 0.013104 1 2 cbr 210 ------- 6 1.0 2.0 39 39
d 0.013104 1 2 cbr 210 ------- 6 1.0 2.0 39 39
+ 0.01344 1 2 cbr 210 ------- 6 1.0 2.0 40 40
d 0.01344 1 2 cbr 210 ------- 6 1.0 2.0 40 40
- 0.01344 1 2 cbr 210 ------- 6 1.0 2.0 8 8
+ 0.013776 1 2 cbr 210 ------- 6 1.0 2.0 41 41
+ 0.014112 1 2 cbr 210 ------- 6 1.0 2.0 42 42
d 0.014112 1 2 cbr 210 ------- 6 1.0 2.0 42 42
+ 0.014448 1 2 cbr 210 ------- 6 1.0 2.0 43 43
d 0.014448 1 2 cbr 210 ------- 6 1.0 2.0 43 43
+ 0.014784 1 2 cbr 210 ------- 6 1.0 2.0 44 44
d 0.014784 1 2 cbr 210 ------- 6 1.0 2.0 44 44
+ 0.01512 1 2 cbr 210 ------- 6 1.0 2.0 45 45
d 0.01512 1 2 cbr 210 ------- 6 1.0 2.0 45 45
- 0.01512 1 2 cbr 210 ------- 6 1.0 2.0 9 9
+ 0.015456 1 2 cbr 210 ------- 6 1.0 2.0 46 46
+ 0.015792 1 2 cbr 210 ------- 6 1.0 2.0 47 47
d 0.015792 1 2 cbr 210 ------- 6 1.0 2.0 47 47
+ 0.016128 1 2 cbr 210 ------- 6 1.0 2.0 48 48
d 0.016128 1 2 cbr 210 ------- 6 1.0 2.0 48 48
+ 0.016464 1 2 cbr 210 ------- 6 1.0 2.0 49 49
d 0.016464 1 2 cbr 210 ------- 6 1.0 2.0 49 49
+ 0.0168 1 2 cbr 210 ------- 6 1.0 2.0 50 50
d 0.0168 1 2 cbr 210 ------- 6 1.0 2.0 50 50
- 0.0168 1 2 cbr 210 ------- 6 1.0 2.0 10 10
+ 0.017136 1 2 cbr 210 ------- 6 1.0 2.0 51 51
+ 0.017472 1 2 cbr 210 ------- 6 1.0 2.0 52 52
d 0.017472 1 2 cbr 210 ------- 6 1.0 2.0 52 52
+ 0.017808 1 2 cbr 210 ------- 6 1.0 2.0 53 53
d 0.017808 1 2 cbr 210 ------- 6 1.0 2.0 53 53
+ 0.018144 1 2 cbr 210 ------- 6 1.0 2.0 54 54
d 0.018144 1 2 cbr 210 ------- 6 1.0 2.0 54 54
+ 0.01848 1 2 cbr 210 ------- 6 1.0 2.0 55 55
d 0.01848 1 2 cbr 210 ------- 6 1.0 2.0 55 55
- 0.01848 1 2 cbr 210 ------- 6 1.0 2.0 11 11
+ 0.018816 1 2 cbr 210 ------- 6 1.0 2.0 56 56
+ 0.019152 1 2 cbr 210 ------- 6 1.0 2.0 57 57
d 0.019152 1 2 cbr 210 ------- 6 1.0 2.0 57 57
+ 0.019488 1 2 cbr 210 ------- 6 1.0 2.0 58 58
d 0.019488 1 2 cbr 210 ------- 6 1.0 2.0 58 58
+ 0.019824 1 2 cbr 210 ------- 6 1.0 2.0 59 59
d 0.019824 1 2 cbr 210 ------- 6 1.0 2.0 59 59
+ 0.02016 1 2 cbr 210 ------- 6 1.0 2.0 60 60
d 0.02016 1 2 cbr 210 ------- 6 1.0 2.0 60 60
- 0.02016 1 2 cbr 210 ------- 6 1.0 2.0 12 12
+ 0.020496 1 2 cbr 210 ------- 6 1.0 2.0 61 61
+ 0.020832 1 2 cbr 210 ------- 6 1.0 2.0 62 62
d 0.020832 1 2 cbr 210 ------- 6 1.0 2.0 62 62
+ 0.021168 1 2 cbr 210 ------- 6 1.0 2.0 63 63
d 0.021168 1 2 cbr 210 ------- 6 1.0 2.0 63 63
+ 0.021504 1 2 cbr 210 ------- 6 1.0 2.0 64 64
d 0.021504 1 2 cbr 210 ------- 6 1.0 2.0 64 64
r 0.02168 1 2 cbr 210 ------- 6 1.0 2.0 0 0
+ 0.02184 1 2 cbr 210 ------- 6 1.0 2.0 65 65
d 0.02184 1 2 cbr 210 ------- 6 1.0 2.0 65 65
- 0.02184 1 2 cbr 210 ------- 6 1.0 2.0 13 13
+ 0.022176 1 2 cbr 210 ------- 6 1.0 2.0 66 66
+ 0.022512 1 2 cbr 210 ------- 6 1.0 2.0 67 67
d 0.022512 1 2 cbr 210 ------- 6 1.0 2.0 67 67
+ 0.022848 1 2 cbr 210 ------- 6 1.0 2.0 68 68
d 0.022848 1 2 cbr 210 ------- 6 1.0 2.0 68 68
+ 0.023184 1 2 cbr 210 ------- 6 1.0 2.0 69 69
d 0.023184 1 2 cbr 210 ------- 6 1.0 2.0 69 69
r 0.02336 1 2 cbr 210 ------- 6 1.0 2.0 1 1
+ 0.02352 1 2 cbr 210 ------- 6 1.0 2.0 70 70
d 0.02352 1 2 cbr 210 ------- 6 1.0 2.0 70 70
- 0.02352 1 2 cbr 210 ------- 6 1.0 2.0 14 14
+ 0.023856 1 2 cbr 210 ------- 6 1.0 2.0 71 71
+ 0.024192 1 2 cbr 210 ------- 6 1.0 2.0 72 72
d 0.024192 1 2 cbr 210 ------- 6 1.0 2.0 72 72
+ 0.024528 1 2 cbr 210 ------- 6 1.0 2.0 73 73
d 0.024528 1 2 cbr 210 ------- 6 1.0 2.0 73 73
+ 0.024864 1 2 cbr 210 ------- 6 1.0 2.0 74 74
d 0.024864 1 2 cbr 210 ------- 6 1.0 2.0 74 74
r 0.02504 1 2 cbr 210 ------- 6 1.0 2.0 2 2
+ 0.0252 1 2 cbr 210 ------- 6 1.0 2.0 75 75
d 0.0252 1 2 cbr 210 ------- 6 1.0 2.0 75 75
- 0.0252 1 2 cbr 210 ------- 6 1.0 2.0 15 15
+ 0.025536 1 2 cbr 210 ------- 6 1.0 2.0 76 76
+ 0.025872 1 2 cbr 210 ------- 6 1.0 2.0 77 77
d 0.025872 1 2 cbr 210 ------- 6 1.0 2.0 77 77
+ 0.026208 1 2 cbr 210 ------- 6 1.0 2.0 78 78
d 0.026208 1 2 cbr 210 ------- 6 1.0 2.0 78 78
+ 0.026544 1 2 cbr 210 ------- 6 1.0 2.0 79 79
d 0.026544 1 2 cbr 210 ------- 6 1.0 2.0 79 79
r 0.02672 1 2 cbr 210 ------- 6 1.0 2.0 3 3
+ 0.02688 1 2 cbr 210 ------- 6 1.0 2.0 80 80
d 0.02688 1 2 cbr 210 ------- 6 1.0 2.0 80 80
- 0.02688 1 2 cbr 210 ------- 6 1.0 2.0 16 16
+ 0.027216 1 2 cbr 210 ------- 6 1.0 2.0 81 81
+ 0.027552 1 2 cbr 210 ------- 6 1.0 2.0 82 82
d 0.027552 1 2 cbr 210 ------- 6 1.0 2.0 82 82
+ 0.027888 1 2 cbr 210 ------- 6 1.0 2.0 83 83
d 0.027888 1 2 cbr 210 ------- 6 1.0 2.0 83 83
+ 0.028224 1 2 cbr 210 ------- 6 1.0 2.0 84 84
d 0.028224 1 2 cbr 210 ------- 6 1.0 2.0 84 84
r 0.0284 1 2 cbr 210 ------- 6 1.0 2.0 4 4
+ 0.02856 1 2 cbr 210 ------- 6 1.0 2.0 85 85
d 0.02856 1 2 cbr 210 ------- 6 1.0 2.0 85 85
- 0.02856 1 2 cbr 210 ------- 6 1.0 2.0 17 17
+ 0.028896 1 2 cbr 210 ------- 6 1.0 2.0 86 86
+ 0.029232 1 2 cbr 210 ------- 6 1.0 2.0 87 87
d 0.029232 1 2 cbr 210 ------- 6 1.0 2.0 87 87
+ 0.029568 1 2 cbr 210 ------- 6 1.0 2.0 88 88
d 0.029568 1 2 cbr 210 ------- 6 1.0 2.0 88 88
+ 0.029904 1 2 cbr 210 ------- 6 1.0 2.0 89 89
d 0.029904 1 2 cbr 210 ------- 6 1.0 2.0 89 89
r 0.03008 1 2 cbr 210 ------- 6 1.0 2.0 5 5
+ 0.03024 1 2 cbr 210 ------- 6 1.0 2.0 90 90
d 0.03024 1 2 cbr 210 ------- 6 1.0 2.0 90 90
- 0.03024 1 2 cbr 210 ------- 6 1.0 2.0 18 18
+ 0.030576 1 2 cbr 210 ------- 6 1.0 2.0 91 91
+ 0.030912 1 2 cbr 210 ------- 6 1.0 2.0 92 92
d 0.030912 1 2 cbr 210 ------- 6 1.0 2.0 92 92
+ 0.031248 1 2 cbr 210 ------- 6 1.0 2.0 93 93
d 0.031248 1 2 cbr 210 ------- 6 1.0 2.0 93 93
+ 0.031584 1 2 cbr 210 ------- 6 1.0 2.0 94 94
d 0.031584 1 2 cbr 210 ------- 6 1.0 2.0 94 94
r 0.03176 1 2 cbr 210 ------- 6 1.0 2.0 6 6
+ 0.03192 1 2 cbr 210 ------- 6 1.0 2.0 95 95
d 0.03192 1 2 cbr 210 ------- 6 1.0 2.0 95 95
- 0.03192 1 2 cbr 210 ------- 6 1.0 2.0 19 19
+ 0.032256 1 2 cbr 210 ------- 6 1.0 2.0 96 96
+ 0.032592 1 2 cbr 210 ------- 6 1.0 2.0 97 97
d 0.032592 1 2 cbr 210 ------- 6 1.0 2.0 97 97
+ 0.032928 1 2 cbr 210 ------- 6 1.0 2.0 98 98
d 0.032928 1 2 cbr 210 ------- 6 1.0 2.0 98 98
+ 0.033264 1 2 cbr 210 ------- 6 1.0 2.0 99 99
d 0.033264 1 2 cbr 210 ------- 6 1.0 2.0 99 99
r 0.03344 1 2 cbr 210 ------- 6 1.0 2.0 7 7
+ 0.0336 1 2 cbr 210 ------- 6 1.0 2.0 100 100
d 0.0336 1 2 cbr 210 ------- 6 1.0 2.0 100 100
- 0.0336 1 2 cbr 210 ------- 6 1.0 2.0 20 20
+ 0.033936 1 2 cbr 210 ------- 6 1.0 2.0 101 101
+ 0.034272 1 2 cbr 210 ------- 6 1.0 2.0 102 102
d 0.034272 1 2 cbr 210 ------- 6 1.0 2.0 102 102
+ 0.034608 1 2 cbr 210 ------- 6 1.0 2.0 103 103
d 0.034608 1 2 cbr 210 ------- 6 1.0 2.0 103 103
+ 0.034944 1 2 cbr 210 ------- 6 1.0 2.0 104 104
d 0.034944 1 2 cbr 210 ------- 6 1.0 2.0 104 104
r 0.03512 1 2 cbr 210 ------- 6 1.0 2.0 8 8
+ 0.03528 1 2 cbr 210 ------- 6 1.0 2.0 105 105
d 0.03528 1 2 cbr 210 ------- 6 1.0 2.0 105 105
- 0.03528 1 2 cbr 210 ------- 6 1.0 2.0 21 21
+ 0.035616 1 2 cbr 210 ------- 6 1.0 2.0 106 106
+ 0.035952 1 2 cbr 210 ------- 6 1.0 2.0 107 107
d 0.035952 1 2 cbr 210 ------- 6 1.0 2.0 107 107
+ 0.036288 1 2 cbr 210 ------- 6 1.0 2.0 108 108
d 0.036288 1 2 cbr 210 ------- 6 1.0 2.0 108 108
+ 0.036624 1 2 cbr 210 ------- 6 1.0 2.0 109 109
d 0.036624 1 2 cbr 210 ------- 6 1.0 2.0 109 109
r 0.0368 1 2 cbr 210 ------- 6 1.0 2.0 9 9
- 0.03696 1 2 cbr 210 ------- 6 1.0 2.0 22 22
+ 0.03696 1 2 cbr 210 ------- 6 1.0 2.0 110 110
+ 0.037296 1 2 cbr 210 ------- 6 1.0 2.0 111 111
d 0.037296 1 2 cbr 210 ------- 6 1.0 2.0 111 111
+ 0.037632 1 2 cbr 210 ------- 6 1.0 2.0 112 112
d 0.037632 1 2 cbr 210 ------- 6 1.0 2.0 112 112
+ 0.037968 1 2 cbr 210 ------- 6 1.0 2.0 113 113
d 0.037968 1 2 cbr 210 ------- 6 1.0 2.0 113 113
+ 0.038304 1 2 cbr 210 ------- 6 1.0 2.0 114 114
d 0.038304 1 2 cbr 210 ------- 6 1.0 2.0 114 114
r 0.03848 1 2 cbr 210 ------- 6 1.0 2.0 10 10
- 0.03864 1 2 cbr 210 ------- 6 1.0 2.0 23 23
+ 0.03864 1 2 cbr 210 ------- 6 1.0 2.0 115 115
+ 0.038976 1 2 cbr 210 ------- 6 1.0 2.0 116 116
d 0.038976 1 2 cbr 210 ------- 6 1.0 2.0 116 116
+ 0.039312 1 2 cbr 210 ------- 6 1.0 2.0 117 117
d 0.039312 1 2 cbr 210 ------- 6 1.0 2.0 117 117
+ 0.039648 1 2 cbr 210 ------- 6 1.0 2.0 118 118
d 0.039648 1 2 cbr 210 ------- 6 1.0 2.0 118 118
+ 0.039984 1 2 cbr 210 ------- 6 1.0 2.0 119 119
d 0.039984 1 2 cbr 210 ------- 6 1.0 2.0 119 119
r 0.04016 1 2 cbr 210 ------- 6 1.0 2.0 11 11
- 0.04032 1 2 cbr 210 ------- 6 1.0 2.0 25 25
+ 0.04032 1 2 cbr 210 ------- 6 1.0 2.0 120 120
+ 0.040656 1 2 cbr 210 ------- 6 1.0 2.0 121 121
d 0.040656 1 2 cbr 210 ------- 6 1.0 2.0 121 121
+ 0.040992 1 2 cbr 210 ------- 6 1.0 2.0 122 122
d 0.040992 1 2 cbr 210 ------- 6 1.0 2.0 122 122
+ 0.041328 1 2 cbr 210 ------- 6 1.0 2.0 123 123
d 0.041328 1 2 cbr 210 ------- 6 1.0 2.0 123 123
+ 0.041664 1 2 cbr 210 ------- 6 1.0 2.0 124 124
d 0.041664 1 2 cbr 210 ------- 6 1.0 2.0 124 124
r 0.04184 1 2 cbr 210 ------- 6 1.0 2.0 12 12
- 0.042 1 2 cbr 210 ------- 6 1.0 2.0 31 31
+ 0.042 1 2 cbr 210 ------- 6 1.0 2.0 125 125
+ 0.042336 1 2 cbr 210 ------- 6 1.0 2.0 126 126
d 0.042336 1 2 cbr 210 ------- 6 1.0 2.0 126 126
+ 0.042672 1 2 cbr 210 ------- 6 1.0 2.0 127 127
d 0.042672 1 2 cbr 210 ------- 6 1.0 2.0 127 127
+ 0.043008 1 2 cbr 210 ------- 6 1.0 2.0 128 128
d 0.043008 1 2 cbr 210 ------- 6 1.0 2.0 128 128
+ 0.043344 1 2 cbr 210 ------- 6 1.0 2.0 129 129
d 0.043344 1 2 cbr 210 ------- 6 1.0 2.0 129 129
r 0.04352 1 2 cbr 210 ------- 6 1.0 2.0 13 13
- 0.04368 1 2 cbr 210 ------- 6 1.0 2.0 36 36
+ 0.04368 1 2 cbr 210 ------- 6 1.0 2.0 130 130
+ 0.044016 1 2 cbr 210 ------- 6 1.0 2.0 131 131
d 0.044016 1 2 cbr 210 ------- 6 1.0 2.0 131 131
+ 0.044352 1 2 cbr 210 ------- 6 1.0 2.0 132 132
d 0.044352 1 2 cbr 210 ------- 6 1.0 2.0 132 132
+ 0.044688 1 2 cbr 210 ------- 6 1.0 2.0 133 133
d 0.044688 1 2 cbr 210 ------- 6 1.0 2.0 133 133
+ 0.045024 1 2 cbr 210 ------- 6 1.0 2.0 134 134
d 0.045024 1 2 cbr 210 ------- 6 1.0 2.0 134 134
r 0.0452 1 2 cbr 210 ------- 6 1.0 2.0 14 14
- 0.04536 1 2 cbr 210 ------- 6 1.0 2.0 41 41
+ 0.04536 1 2 cbr 210 ------- 6 1.0 2.0 135 135
+ 0.045696 1 2 cbr 210 ------- 6 1.0 2.0 136 136
d 0.045696 1 2 cbr 210 ------- 6 1.0 2.0 136 136
+ 0.046032 1 2 cbr 210 ------- 6 1.0 2.0 137 137
d 0.046032 1 2 cbr 210 ------- 6 1.0 2.0 137 137
+ 0.046368 1 2 cbr 210 ------- 6 1.0 2.0 138 138
d 0.046368 1 2 cbr 210 ------- 6 1.0 2.0 138 138
+ 0.046704 1 2 cbr 210 ------- 6 1.0 2.0 139 139
d 0.046704 1 2 cbr 210 ------- 6 1.0 2.0 139 139
r 0.04688 1 2 cbr 210 ------- 6 1.0 2.0 15 15
- 0.04704 1 2 cbr 210 ------- 6 1.0 2.0 46 46
+ 0.04704 1 2 cbr 210 ------- 6 1.0 2.0 140 140
+ 0.047376 1 2 cbr 210 ------- 6 1.0 2.0 141 141
d 0.047376 1 2 cbr 210 ------- 6 1.0 2.0 141 141
+ 0.047712 1 2 cbr 210 ------- 6 1.0 2.0 142 142
d 0.047712 1 2 cbr 210 ------- 6 1.0 2.0 142 142
+ 0.048048 1 2 cbr 210 ------- 6 1.0 2.0 143 143
d 0.048048 1 2 cbr 210 ------- 6 1.0 2.0 143 143
+ 0.048384 1 2 cbr 210 ------- 6 1.0 2.0 144 144
d 0.048384 1 2 cbr 210 ------- 6 1.0 2.0 144 144
r 0.04856 1 2 cbr 210 ------- 6 1.0 2.0 16 16
- 0.04872 1 2 cbr 210 ------- 6 1.0 2.0 51 51
+ 0.04872 1 2 cbr 210 ------- 6 1.0 2.0 145 145
+ 0.049056 1 2 cbr 210 ------- 6 1.0 2.0 146 146
d 0.049056 1 2 cbr 210 ------- 6 1.0 2.0 146 146
+ 0.049392 1 2 cbr 210 ------- 6 1.0 2.0 147 147
d 0.049392 1 2 cbr 210 ------- 6 1.0 2.0 147 147
+ 0.049728 1 2 cbr 210 ------- 6 1.0 2.0 148 148
d 0.049728 1 2 cbr 210 ------- 6 1.0 2.0 148 148
+ 0.050064 1 2 cbr 210 ------- 6 1.0 2.0 149 149
d 0.050064 1 2 cbr 210 ------- 6 1.0 2.0 149 149
r 0.05024 1 2 cbr 210 ------- 6 1.0 2.0 17 17
- 0.0504 1 2 cbr 210 ------- 6 1.0 2.0 56 56
+ 0.0504 1 2 cbr 210 ------- 6 1.0 2.0 150 150
+ 0.050736 1 2 cbr 210 ------- 6 1.0 2.0 151 151
d 0.050736 1 2 cbr 210 ------- 6 1.0 2.0 151 151
+ 0.051072 1 2 cbr 210 ------- 6 1.0 2.0 152 152
d 0.051072 1 2 cbr 210 ------- 6 1.0 2.0 152 152
+ 0.051408 1 2 cbr 210 ------- 6 1.0 2.0 153 153
d 0.051408 1 2 cbr 210 ------- 6 1.0 2.0 153 153
+ 0.051744 1 2 cbr 210 ------- 6 1.0 2.0 154 154
d 0.051744 1 2 cbr 210 ------- 6 1.0 2.0 154 154
r 0.05192 1 2 cbr 210 ------- 6 1.0 2.0 18 18
- 0.05208 1 2 cbr 210 ------- 6 1.0 2.0 61 61
+ 0.05208 1 2 cbr 210 ------- 6 1.0 2.0 155 155
+ 0.052416 1 2 cbr 210 ------- 6 1.0 2.0 156 156
d 0.052416 1 2 cbr 210 ------- 6 1.0 2.0 156 156
+ 0.052752 1 2 cbr 210 ------- 6 1.0 2.0 157 157
d 0.052752 1 2 cbr 210 ------- 6 1.0 2.0 157 157
+ 0.053088 1 2 cbr 210 ------- 6 1.0 2.0 158 158
d 0.053088 1 2 cbr 210 ------- 6 1.0 2.0 158 158
+ 0.053424 1 2 cbr 210 ------- 6 1.0 2.0 159 159
d 0.053424 1 2 cbr 210 ------- 6 1.0 2.0 159 159
r 0.0536 1 2 cbr 210 ------- 6 1.0 2.0 19 19
- 0.05376 1 2 cbr 210 ------- 6 1.0 2.0 66 66
+ 0.05376 1 2 cbr 210 ------- 6 1.0 2.0 160 160
+ 0.054096 1 2 cbr 210 ------- 6 1.0 2.0 161 161
d 0.054096 1 2 cbr 210 ------- 6 1.0 2.0 161 161
+ 0.054432 1 2 cbr 210 ------- 6 1.0 2.0 162 162
d 0.054432 1 2 cbr 210 ------- 6 1.0 2.0 162 162
+ 0.054768 1 2 cbr 210 ------- 6 1.0 2.0 163 163
d 0.054768 1 2 cbr 210 ------- 6 1.0 2.0 163 163
+ 0.055104 1 2 cbr 210 ------- 6 1.0 2.0 164 164
d 0.055104 1 2 cbr 210 ------- 6 1.0 2.0 164 164
r 0.05528 1 2 cbr 210 ------- 6 1.0 2.0 20 20
- 0.05544 1 2 cbr 210 ------- 6 1.0 2.0 71 71
+ 0.05544 1 2 cbr 210 ------- 6 1.0 2.0 165 165
+ 0.055776 1 2 cbr 210 ------- 6 1.0 2.0 166 166
d 0.055776 1 2 cbr 210 ------- 6 1.0 2.0 166 166
+ 0.056112 1 2 cbr 210 ------- 6 1.0 2.0 167 167
d 0.056112 1 2 cbr 210 ------- 6 1.0 2.0 167 167
+ 0.056448 1 2 cbr 210 ------- 6 1.0 2.0 168 168
d 0.056448 1 2 cbr 210 ------- 6 1.0 2.0 168 168
+ 0.056784 1 2 cbr 210 ------- 6 1.0 2.0 169 169
d 0.056784 1 2 cbr 210 ------- 6 1.0 2.0 169 169
r 0.05696 1 2 cbr 210 ------- 6 1.0 2.0 21 21
- 0.05712 1 2 cbr 210 ------- 6 1.0 2.0 76 76
+ 0.05712 1 2 cbr 210 ------- 6 1.0 2.0 170 170
+ 0.057456 1 2 cbr 210 ------- 6 1.0 2.0 171 171
d 0.057456 1 2 cbr 210 ------- 6 1.0 2.0 171 171
+ 0.057792 1 2 cbr 210 ------- 6 1.0 2.0 172 172
d 0.057792 1 2 cbr 210 ------- 6 1.0 2.0 172 172
+ 0.058128 1 2 cbr 210 ------- 6 1.0 2.0 173 173
d 0.058128 1 2 cbr 210 ------- 6 1.0 2.0 173 173
+ 0.058464 1 2 cbr 210 ------- 6 1.0 2.0 174 174
d 0.058464 1 2 cbr 210 ------- 6 1.0 2.0 174 174
r 0.05864 1 2 cbr 210 ------- 6 1.0 2.0 22 22
- 0.0588 1 2 cbr 210 ------- 6 1.0 2.0 81 81
+ 0.0588 1 2 cbr 210 ------- 6 1.0 2.0 175 175
+ 0.059136 1 2 cbr 210 ------- 6 1.0 2.0 176 176
d 0.059136 1 2 cbr 210 ------- 6 1.0 2.0 176 176
+ 0.059472 1 2 cbr 210 ------- 6 1.0 2.0 177 177
d 0.059472 1 2 cbr 210 ------- 6 1.0 2.0 177 177
+ 0.059808 1 2 cbr 210 ------- 6 1.0 2.0 178 178
d 0.059808 1 2 cbr 210 ------- 6 1.0 2.0 178 178
+ 0.060144 1 2 cbr 210 ------- 6 1.0 2.0 179 179
d 0.060144 1 2 cbr 210 ------- 6 1.0 2.0 179 179
r 0.06032 1 2 cbr 210 ------- 6 1.0 2.0 23 23
- 0.06048 1 2 cbr 210 ------- 6 1.0 2.0 86 86
+ 0.06048 1 2 cbr 210 ------- 6 1.0 2.0 180 180
+ 0.060816 1 2 cbr 210 ------- 6 1.0 2.0 181 181
d 0.060816 1 2 cbr 210 ------- 6 1.0 2.0 181 181
+ 0.061152 1 2 cbr 210 ------- 6 1.0 2.0 182 182
d 0.061152 1 2 cbr 210 ------- 6 1.0 2.0 182 182
+ 0.061488 1 2 cbr 210 ------- 6 1.0 2.0 183 183
d 0.061488 1 2 cbr 210 ------- 6 1.0 2.0 183 183
+ 0.061824 1 2 cbr 210 ------- 6 1.0 2.0 184 184
d 0.061824 1 2 cbr 210 ------- 6 1.0 2.0 184 184
r 0.062 1 2 cbr 210 ------- 6 1.0 2.0 25 25
- 0.06216 1 2 cbr 210 ------- 6 1.0 2.0 91 91
+ 0.06216 1 2 cbr 210 ------- 6 1.0 2.0 185 185
+ 0.062496 1 2 cbr 210 ------- 6 1.0 2.0 186 186
d 0.062496 1 2 cbr 210 ------- 6 1.0 2.0 186 186
+ 0.062832 1 2 cbr 210 ------- 6 1.0 2.0 187 187
d 0.062832 1 2 cbr 210 ------- 6 1.0 2.0 187 187
+ 0.063168 1 2 cbr 210 ------- 6 1.0 2.0 188 188
d 0.063168 1 2 cbr 210 ------- 6 1.0 2.0 188 188
+ 0.063504 1 2 cbr 210 ------- 6 1.0 2.0 189 189
d 0.063504 1 2 cbr 210 ------- 6 1.0 2.0 189 189
r 0.06368 1 2 cbr 210 ------- 6 1.0 2.0 31 31
- 0.06384 1 2 cbr 210 ------- 6 1.0 2.0 96 96
+ 0.06384 1 2 cbr 210 ------- 6 1.0 2.0 190 190
+ 0.064176 1 2 cbr 210 ------- 6 1.0 2.0 191 191
d 0.064176 1 2 cbr 210 ------- 6 1.0 2.0 191 191
+ 0.064512 1 2 cbr 210 ------- 6 1.0 2.0 192 192
d 0.064512 1 2 cbr 210 ------- 6 1.0 2.0 192 192
+ 0.064848 1 2 cbr 210 ------- 6 1.0 2.0 193 193
d 0.064848 1 2 cbr 210 ------- 6 1.0 2.0 193 193
+ 0.065184 1 2 cbr 210 ------- 6 1.0 2.0 194 194
d 0.065184 1 2 cbr 210 ------- 6 1.0 2.0 194 194
r 0.06536 1 2 cbr 210 ------- 6 1.0 2.0 36 36
- 0.06552 1 2 cbr 210 ------- 6 1.0 2.0 101 101
+ 0.06552 1 2 cbr 210 ------- 6 1.0 2.0 195 195
+ 0.065856 1 2 cbr 210 ------- 6 1.0 2.0 196 196
d 0.065856 1 2 cbr 210 ------- 6 1.0 2.0 196 196
+ 0.066192 1 2 cbr 210 ------- 6 1.0 2.0 197 197
d 0.066192 1 2 cbr 210 ------- 6 1.0 2.0 197 197
+ 0.066528 1 2 cbr 210 ------- 6 1.0 2.0 198 198
d 0.066528 1 2 cbr 210 ------- 6 1.0 2.0 198 198
+ 0.066864 1 2 cbr 210 ------- 6 1.0 2.0 199 199
d 0.066864 1 2 cbr 210 ------- 6 1.0 2.0 199 199
r 0.06704 1 2 cbr 210 ------- 6 1.0 2.0 41 41
- 0.0672 1 2 cbr 210 ------- 6 1.0 2.0 106 106
+ 0.0672 1 2 cbr 210 ------- 6 1.0 2.0 200 200
+ 0.067536 1 2 cbr 210 ------- 6 1.0 2.0 201 201
d 0.067536 1 2 cbr 210 ------- 6 1.0 2.0 201 201
+ 0.067872 1 2 cbr 210 ------- 6 1.0 2.0 202 202
d 0.067872 1 2 cbr 210 ------- 6 1.0 2.0 202 202
+ 0.068208 1 2 cbr 210 ------- 6 1.0 2.0 203 203
d 0.068208 1 2 cbr 210 ------- 6 1.0 2.0 203 203
+ 0.068544 1 2 cbr 210 ------- 6 1.0 2.0 204 204
d 0.068544 1 2 cbr 210 ------- 6 1.0 2.0 204 204
r 0.06872 1 2 cbr 210 ------- 6 1.0 2.0 46 46
- 0.06888 1 2 cbr 210 ------- 6 1.0 2.0 110 110
+ 0.06888 1 2 cbr 210 ------- 6 1.0 2.0 205 205
+ 0.069216 1 2 cbr 210 ------- 6 1.0 2.0 206 206
d 0.069216 1 2 cbr 210 ------- 6 1.0 2.0 206 206
+ 0.069552 1 2 cbr 210 ------- 6 1.0 2.0 207 207
d 0.069552 1 2 cbr 210 ------- 6 1.0 2.0 207 207
+ 0.069888 1 2 cbr 210 ------- 6 1.0 2.0 208 208
d 0.069888 1 2 cbr 210 ------- 6 1.0 2.0 208 208
+ 0.070224 1 2 cbr 210 ------- 6 1.0 2.0 209 209
d 0.070224 1 2 cbr 210 ------- 6 1.0 2.0 209 209
r 0.0704 1 2 cbr 210 ------- 6 1.0 2.0 51 51
- 0.07056 1 2 cbr 210 ------- 6 1.0 2.0 115 115
+ 0.07056 1 2 cbr 210 ------- 6 1.0 2.0 210 210
+ 0.070896 1 2 cbr 210 ------- 6 1.0 2.0 211 211
d 0.070896 1 2 cbr 210 ------- 6 1.0 2.0 211 211
+ 0.071232 1 2 cbr 210 ------- 6 1.0 2.0 212 212
d 0.071232 1 2 cbr 210 ------- 6 1.0 2.0 212 212
+ 0.071568 1 2 cbr 210 ------- 6 1.0 2.0 213 213
d 0.071568 1 2 cbr 210 ------- 6 1.0 2.0 213 213
+ 0.071904 1 2 cbr 210 ------- 6 1.0 2.0 214 214
d 0.071904 1 2 cbr 210 ------- 6 1.0 2.0 214 214
r 0.07208 1 2 cbr 210 ------- 6 1.0 2.0 56 56
- 0.07224 1 2 cbr 210 ------- 6 1.0 2.0 120 120
+ 0.07224 1 2 cbr 210 ------- 6 1.0 2.0 215 215
+ 0.072576 1 2 cbr 210 ------- 6 1.0 2.0 216 216
d 0.072576 1 2 cbr 210 ------- 6 1.0 2.0 216 216
+ 0.072912 1 2 cbr 210 ------- 6 1.0 2.0 217 217
d 0.072912 1 2 cbr 210 ------- 6 1.0 2.0 217 217
+ 0.073248 1 2 cbr 210 ------- 6 1.0 2.0 218 218
d 0.073248 1 2 cbr 210 ------- 6 1.0 2.0 218 218
+ 0.073584 1 2 cbr 210 ------- 6 1.0 2.0 219 219
d 0.073584 1 2 cbr 210 ------- 6 1.0 2.0 219 219
r 0.07376 1 2 cbr 210 ------- 6 1.0 2.0 61 61
- 0.07392 1 2 cbr 210 ------- 6 1.0 2.0 125 125
+ 0.07392 1 2 cbr 210 ------- 6 1.0 2.0 220 220
+ 0.074256 1 2 cbr 210 ------- 6 1.0 2.0 221 221
d 0.074256 1 2 cbr 210 ------- 6 1.0 2.0 221 221
+ 0.074592 1 2 cbr 210 ------- 6 1.0 2.0 222 222
d 0.074592 1 2 cbr 210 ------- 6 1.0 2.0 222 222
+ 0.074928 1 2 cbr 210 ------- 6 1.0 2.0 223 223
d 0.074928 1 2 cbr 210 ------- 6 1.0 2.0 223 223
+ 0.075264 1 2 cbr 210 ------- 6 1.0 2.0 224 224
d 0.075264 1 2 cbr 210 ------- 6 1.0 2.0 224 224
r 0.07544 1 2 cbr 210 ------- 6 1.0 2.0 66 66
- 0.0756 1 2 cbr 210 ------- 6 1.0 2.0 130 130
+ 0.0756 1 2 cbr 210 ------- 6 1.0 2.0 225 225
+ 0.075936 1 2 cbr 210 ------- 6 1.0 2.0 226 226
d 0.075936 1 2 cbr 210 ------- 6 1.0 2.0 226 226
+ 0.076272 1 2 cbr 210 ------- 6 1.0 2.0 227 227
d 0.076272 1 2 cbr 210 ------- 6 1.0 2.0 227 227
+ 0.076608 1 2 cbr 210 ------- 6 1.0 2.0 228 228
d 0.076608 1 2 cbr 210 ------- 6 1.0 2.0 228 228
+ 0.076944 1 2 cbr 210 ------- 6 1.0 2.0 229 229
d 0.076944 1 2 cbr 210 ------- 6 1.0 2.0 229 229
r 0.07712 1 2 cbr 210 ------- 6 1.0 2.0 71 71
- 0.07728 1 2 cbr 210 ------- 6 1.0 2.0 135 135
+ 0.07728 1 2 cbr 210 ------- 6 1.0 2.0 230 230
+ 0.077616 1 2 cbr 210 ------- 6 1.0 2.0 231 231
d 0.077616 1 2 cbr 210 ------- 6 1.0 2.0 231 231
+ 0.077952 1 2 cbr 210 ------- 6 1.0 2.0 232 232
d 0.077952 1 2 cbr 210 ------- 6 1.0 2.0 232 232
+ 0.078288 1 2 cbr 210 ------- 6 1.0 2.0 233 233
d 0.078288 1 2 cbr 210 ------- 6 1.0 2.0 233 233
+ 0.078624 1 2 cbr 210 ------- 6 1.0 2.0 234 234
d 0.078624 1 2 cbr 210 ------- 6 1.0 2.0 234 234
r 0.0788 1 2 cbr 210 ------- 6 1.0 2.0 76 76
- 0.07896 1 2 cbr 210 ------- 6 1.0 2.0 140 140
+ 0.07896 1 2 cbr 210 ------- 6 1.0 2.0 235 235
+ 0.079296 1 2 cbr 210 ------- 6 1.0 2.0 236 236
d 0.079296 1 2 cbr 210 ------- 6 1.0 2.0 236 236
+ 0.079632 1 2 cbr 210 ------- 6 1.0 2.0 237 237
d 0.079632 1 2 cbr 210 ------- 6 1.0 2.0 237 237
+ 0.079968 1 2 cbr 210 ------- 6 1.0 2.0 238 238
d 0.079968 1 2 cbr 210 ------- 6 1.0 2.0 238 238
+ 0.080304 1 2 cbr 210 ------- 6 1.0 2.0 239 239
d 0.080304 1 2 cbr 210 ------- 6 1.0 2.0 239 239
r 0.08048 1 2 cbr 210 ------- 6 1.0 2.0 81 81
- 0.08064 1 2 cbr 210 ------- 6 1.0 2.0 145 145
+ 0.08064 1 2 cbr 210 ------- 6 1.0 2.0 240 240
+ 0.080976 1 2 cbr 210 ------- 6 1.0 2.0 241 241
d 0.080976 1 2 cbr 210 ------- 6 1.0 2.0 241 241
+ 0.081312 1 2 cbr 210 ------- 6 1.0 2.0 242 242
d 0.081312 1 2 cbr 210 ------- 6 1.0 2.0 242 242
+ 0.081648 1 2 cbr 210 ------- 6 1.0 2.0 243 243
d 0.081648 1 2 cbr 210 ------- 6 1.0 2.0 243 243
+ 0.081984 1 2 cbr 210 ------- 6 1.0 2.0 244 244
d 0.081984 1 2 cbr 210 ------- 6 1.0 2.0 244 244
r 0.08216 1 2 cbr 210 ------- 6 1.0 2.0 86 86
- 0.08232 1 2 cbr 210 ------- 6 1.0 2.0 150 150
+ 0.08232 1 2 cbr 210 ------- 6 1.0 2.0 245 245
+ 0.082656 1 2 cbr 210 ------- 6 1.0 2.0 246 246
d 0.082656 1 2 cbr 210 ------- 6 1.0 2.0 246 246
+ 0.082992 1 2 cbr 210 ------- 6 1.0 2.0 247 247
d 0.082992 1 2 cbr 210 ------- 6 1.0 2.0 247 247
+ 0.083328 1 2 cbr 210 ------- 6 1.0 2.0 248 248
d 0.083328 1 2 cbr 210 ------- 6 1.0 2.0 248 248
+ 0.083664 1 2 cbr 210 ------- 6 1.0 2.0 249 249
d 0.083664 1 2 cbr 210 ------- 6 1.0 2.0 249 249
r 0.08384 1 2 cbr 210 ------- 6 1.0 2.0 91 91
- 0.084 1 2 cbr 210 ------- 6 1.0 2.0 155 155
+ 0.084 1 2 cbr 210 ------- 6 1.0 2.0 250 250
+ 0.084336 1 2 cbr 210 ------- 6 1.0 2.0 251 251
d 0.084336 1 2 cbr 210 ------- 6 1.0 2.0 251 251
+ 0.084672 1 2 cbr 210 ------- 6 1.0 2.0 252 252
d 0.084672 1 2 cbr 210 ------- 6 1.0 2.0 252 252
+ 0.085008 1 2 cbr 210 ------- 6 1.0 2.0 253 253
d 0.085008 1 2 cbr 210 ------- 6 1.0 2.0 253 253
+ 0.085344 1 2 cbr 210 ------- 6 1.0 2.0 254 254
d 0.085344 1 2 cbr 210 ------- 6 1.0 2.0 254 254
r 0.08552 1 2 cbr 210 ------- 6 1.0 2.0 96 96
- 0.08568 1 2 cbr 210 ------- 6 1.0 2.0 160 160
+ 0.08568 1 2 cbr 210 ------- 6 1.0 2.0 255 255
+ 0.086016 1 2 cbr 210 ------- 6 1.0 2.0 256 256
d 0.086016 1 2 cbr 210 ------- 6 1.0 2.0 256 256
+ 0.086352 1 2 cbr 210 ------- 6 1.0 2.0 257 257
d 0.086352 1 2 cbr 210 ------- 6 1.0 2.0 257 257
+ 0.086688 1 2 cbr 210 ------- 6 1.0 2.0 258 258
d 0.086688 1 2 cbr 210 ------- 6 1.0 2.0 258 258
+ 0.087024 1 2 cbr 210 ------- 6 1.0 2.0 259 259
d 0.087024 1 2 cbr 210 ------- 6 1.0 2.0 259 259
r 0.0872 1 2 cbr 210 ------- 6 1.0 2.0 101 101
- 0.08736 1 2 cbr 210 ------- 6 1.0 2.0 165 165
+ 0.08736 1 2 cbr 210 ------- 6 1.0 2.0 260 260
+ 0.087696 1 2 cbr 210 ------- 6 1.0 2.0 261 261
d 0.087696 1 2 cbr 210 ------- 6 1.0 2.0 261 261
+ 0.088032 1 2 cbr 210 ------- 6 1.0 2.0 262 262
d 0.088032 1 2 cbr 210 ------- 6 1.0 2.0 262 262
+ 0.088368 1 2 cbr 210 ------- 6 1.0 2.0 263 263
d 0.088368 1 2 cbr 210 ------- 6 1.0 2.0 263 263
+ 0.088704 1 2 cbr 210 ------- 6 1.0 2.0 264 264
d 0.088704 1 2 cbr 210 ------- 6 1.0 2.0 264 264
r 0.08888 1 2 cbr 210 ------- 6 1.0 2.0 106 106
- 0.08904 1 2 cbr 210 ------- 6 1.0 2.0 170 170
+ 0.08904 1 2 cbr 210 ------- 6 1.0 2.0 265 265
+ 0.089376 1 2 cbr 210 ------- 6 1.0 2.0 266 266
d 0.089376 1 2 cbr 210 ------- 6 1.0 2.0 266 266
+ 0.089712 1 2 cbr 210 ------- 6 1.0 2.0 267 267
d 0.089712 1 2 cbr 210 ------- 6 1.0 2.0 267 267
+ 0.090048 1 2 cbr 210 ------- 6 1.0 2.0 268 268
d 0.090048 1 2 cbr 210 ------- 6 1.0 2.0 268 268
+ 0.090384 1 2 cbr 210 ------- 6 1.0 2.0 269 269
d 0.090384 1 2 cbr 210 ------- 6 1.0 2.0 269 269
r 0.09056 1 2 cbr 210 ------- 6 1.0 2.0 110 110
- 0.09072 1 2 cbr 210 ------- 6 1.0 2.0 175 175
+ 0.09072 1 2 cbr 210 ------- 6 1.0 2.0 270 270
+ 0.091056 1 2 cbr 210 ------- 6 1.0 2.0 271 271
d 0.091056 1 2 cbr 210 ------- 6 1.0 2.0 271 271
+ 0.091392 1 2 cbr 210 ------- 6 1.0 2.0 272 272
d 0.091392 1 2 cbr 210 ------- 6 1.0 2.0 272 272
+ 0.091728 1 2 cbr 210 ------- 6 1.0 2.0 273 273
d 0.091728 1 2 cbr 210 ------- 6 1.0 2.0 273 273
+ 0.092064 1 2 cbr 210 ------- 6 1.0 2.0 274 274
d 0.092064 1 2 cbr 210 ------- 6 1.0 2.0 274 274
r 0.09224 1 2 cbr 210 ------- 6 1.0 2.0 115 115
- 0.0924 1 2 cbr 210 ------- 6 1.0 2.0 180 180
+ 0.0924 1 2 cbr 210 ------- 6 1.0 2.0 275 275
+ 0.092736 1 2 cbr 210 ------- 6 1.0 2.0 276 276
d 0.092736 1 2 cbr 210 ------- 6 1.0 2.0 276 276
+ 0.093072 1 2 cbr 210 ------- 6 1.0 2.0 277 277
d 0.093072 1 2 cbr 210 ------- 6 1.0 2.0 277 277
+ 0.093408 1 2 cbr 210 ------- 6 1.0 2.0 278 278
d 0.093408 1 2 cbr 210 ------- 6 1.0 2.0 278 278
+ 0.093744 1 2 cbr 210 ------- 6 1.0 2.0 279 279
d 0.093744 1 2 cbr 210 ------- 6 1.0 2.0 279 279
r 0.09392 1 2 cbr 210 ------- 6 1.0 2.0 120 120
- 0.09408 1 2 cbr 210 ------- 6 1.0 2.0 185 185
+ 0.09408 1 2 cbr 210 ------- 6 1.0 2.0 280 280
+ 0.094416 1 2 cbr 210 ------- 6 1.0 2.0 281 281
d 0.094416 1 2 cbr 210 ------- 6 1.0 2.0 281 281
+ 0.094752 1 2 cbr 210 ------- 6 1.0 2.0 282 282
d 0.094752 1 2 cbr 210 ------- 6 1.0 2.0 282 282
+ 0.095088 1 2 cbr 210 ------- 6 1.0 2.0 283 283
d 0.095088 1 2 cbr 210 ------- 6 1.0 2.0 283 283
+ 0.095424 1 2 cbr 210 ------- 6 1.0 2.0 284 284
d 0.095424 1 2 cbr 210 ------- 6 1.0 2.0 284 284
r 0.0956 1 2 cbr 210 ------- 6 1.0 2.0 125 125
- 0.09576 1 2 cbr 210 ------- 6 1.0 2.0 190 190
+ 0.09576 1 2 cbr 210 ------- 6 1.0 2.0 285 285
+ 0.096096 1 2 cbr 210 ------- 6 1.0 2.0 286 286
d 0.096096 1 2 cbr 210 ------- 6 1.0 2.0 286 286
+ 0.096432 1 2 cbr 210 ------- 6 1.0 2.0 287 287
d 0.096432 1 2 cbr 210 ------- 6 1.0 2.0 287 287
+ 0.096768 1 2 cbr 210 ------- 6 1.0 2.0 288 288
d 0.096768 1 2 cbr 210 ------- 6 1.0 2.0 288 288
+ 0.097104 1 2 cbr 210 ------- 6 1.0 2.0 289 289
d 0.097104 1 2 cbr 210 ------- 6 1.0 2.0 289 289
r 0.09728 1 2 cbr 210 ------- 6 1.0 2.0 130 130
- 0.09744 1 2 cbr 210 ------- 6 1.0 2.0 195 195
+ 0.09744 1 2 cbr 210 ------- 6 1.0 2.0 290 290
+ 0.097776 1 2 cbr 210 ------- 6 1.0 2.0 291 291
d 0.097776 1 2 cbr 210 ------- 6 1.0 2.0 291 291
+ 0.098112 1 2 cbr 210 ------- 6 1.0 2.0 292 292
d 0.098112 1 2 cbr 210 ------- 6 1.0 2.0 292 292
+ 0.098448 1 2 cbr 210 ------- 6 1.0 2.0 293 293
d 0.098448 1 2 cbr 210 ------- 6 1.0 2.0 293 293
+ 0.098784 1 2 cbr 210 ------- 6 1.0 2.0 294 294
d 0.098784 1 2 cbr 210 ------- 6 1.0 2.0 294 294
r 0.09896 1 2 cbr 210 ------- 6 1.0 2.0 135 135
- 0.09912 1 2 cbr 210 ------- 6 1.0 2.0 200 200
+ 0.09912 1 2 cbr 210 ------- 6 1.0 2.0 295 295
+ 0.099456 1 2 cbr 210 ------- 6 1.0 2.0 296 296
d 0.099456 1 2 cbr 210 ------- 6 1.0 2.0 296 296
+ 0.099792 1 2 cbr 210 ------- 6 1.0 2.0 297 297
d 0.099792 1 2 cbr 210 ------- 6 1.0 2.0 297 297
+ 0.100128 1 2 cbr 210 ------- 6 1.0 2.0 298 298
d 0.100128 1 2 cbr 210 ------- 6 1.0 2.0 298 298
+ 0.100464 1 2 cbr 210 ------- 6 1.0 2.0 299 299
d 0.100464 1 2 cbr 210 ------- 6 1.0 2.0 299 299