+ 0 1 2 cbr 210 ------- 6 1.0 2.0 0 0
- 0 1 2 cbr 210 ------- 6 1.0 2.0 0 0
+ 0.00024 1 2 cbr 210 ------- 6 1.0 2.0 1 1
+ 0.00048 1 2 cbr 210 ------- 6 1.0 2.0 2 2
+ 0.00072 1 2 cbr 210 ------- 6 1.0 2.0 3 3
+ 0.00096 1 2 cbr 210 ------- 6 1.0 2.0 4 4
+ 0.0012 1 2 cbr 210 ------- 6 1.0 2.0 5 5
+ 0.00144 1 2 cbr 210 ------- 6 1.0 2.0 6 6
- 0.00168 1 2 cbr 210 ------- 6 1.0 2.0 1 1
+ 0.00168 1 2 cbr 210 ------- 6 1.0 2.0 7 7
+ 0.00192 1 2 cbr 210 ------- 6 1.0 2.0 8 8
+ 0.00216 1 2 cbr 210 ------- 6 1.0 2.0 9 9
+ 0.0024 1 2 cbr 210 ------- 6 1.0 2.0 10 10
+ 0.00264 1 2 cbr 210 ------- 6 1.0 2.0 11 11
+ 0.00288 1 2 cbr 210 ------- 6 1.0 2.0 12 12
+ 0.00312 1 2 cbr 210 ------- 6 1.0 2.0 13 13
- 0.00336 1 2 cbr 210 ------- 6 1.0 2.0 2 2
+ 0.00336 1 2 cbr 210 ------- 6 1.0 2.0 14 14
+ 0.0036 1 2 cbr 210 ------- 6 1.0 2.0 15 15
+ 0.00384 1 2 cbr 210 ------- 6 1.0 2.0 16 16
+ 0.00408 1 2 cbr 210 ------- 6 1.0 2.0 17 17
+ 0.00432 1 2 cbr 210 ------- 6 1.0 2.0 18 18
+ 0.00456 1 2 cbr 210 ------- 6 1.0 2.0 19 19
+ 0.0048 1 2 cbr 210 ------- 6 1.0 2.0 20 20
- 0.00504 1 2 cbr 210 ------- 6 1.0 2.0 3 3
+ 0.00504 1 2 cbr 210 ------- 6 1.0 2.0 21 21
+ 0.00528 1 2 cbr 210 ------- 6 1.0 2.0 22 22
+ 0.00552 1 2 cbr 210 ------- 6 1.0 2.0 23 23
d 0.00552 1 2 cbr 210 ------- 6 1.0 2.0 23 23
+ 0.00576 1 2 cbr 210 ------- 6 1.0 2.0 24 24
d 0.00576 1 2 cbr 210 ------- 6 1.0 2.0 24 24
+ 0.006 1 2 cbr 210 ------- 6 1.0 2.0 25 25
d 0.006 1 2 cbr 210 ------- 6 1.0 2.0 25 25
+ 0.00624 1 2 cbr 210 ------- 6 1.0 2.0 26 26
d 0.00624 1 2 cbr 210 ------- 6 1.0 2.0 26 26
+ 0.00648 1 2 cbr 210 ------- 6 1.0 2.0 27 27
d 0.00648 1 2 cbr 210 ------- 6 1.0 2.0 27 27
+ 0.00672 1 2 cbr 210 ------- 6 1.0 2.0 28 28
d 0.00672 1 2 cbr 210 ------- 6 1.0 2.0 28 28
- 0.00672 1 2 cbr 210 ------- 6 1.0 2.0 4 4
+ 0.00696 1 2 cbr 210 ------- 6 1.0 2.0 29 29
+ 0.0072 1 2 cbr 210 ------- 6 1.0 2.0 30 30
d 0.0072 1 2 cbr 210 ------- 6 1.0 2.0 30 30
+ 0.00744 1 2 cbr 210 ------- 6 1.0 2.0 31 31
d 0.00744 1 2 cbr 210 ------- 6 1.0 2.0 31 31
+ 0.00768 1 2 cbr 210 ------- 6 1.0 2.0 32 32
d 0.00768 1 2 cbr 210 ------- 6 1.0 2.0 32 32
+ 0.00792 1 2 cbr 210 ------- 6 1.0 2.0 33 33
d 0.00792 1 2 cbr 210 ------- 6 1.0 2.0 33 33
+ 0.00816 1 2 cbr 210 ------- 6 1.0 2.0 34 34
d 0.00816 1 2 cbr 210 ------- 6 1.0 2.0 34 34
+ 0.0084 1 2 cbr 210 ------- 6 1.0 2.0 35 35
d 0.0084 1 2 cbr 210 ------- 6 1.0 2.0 35 35
- 0.0084 1 2 cbr 210 ------- 6 1.0 2.0 5 5
+ 0.00864 1 2 cbr 210 ------- 6 1.0 2.0 36 36
+ 0.00888 1 2 cbr 210 ------- 6 1.0 2.0 37 37
d 0.00888 1 2 cbr 210 ------- 6 1.0 2.0 37 37
+ 0.00912 1 2 cbr 210 ------- 6 1.0 2.0 38 38
d 0.00912 1 2 cbr 210 ------- 6 1.0 2.0 38 38
+ 0.00936 1 2 cbr 210 ------- 6 1.0 2.0 39 39
d 0.00936 1 2 cbr 210 ------- 6 1.0 2.0 39 39
+ 0.0096 1 2 cbr 210 ------- 6 1.0 2.0 40 40
d 0.0096 1 2 cbr 210 ------- 6 1.0 2.0 40 40
+ 0.00984 1 2 cbr 210 ------- 6 1.0 2.0 41 41
d 0.00984 1 2 cbr 210 ------- 6 1.0 2.0 41 41
- 0.01008 1 2 cbr 210 ------- 6 1.0 2.0 6 6
+ 0.01008 1 2 cbr 210 ------- 6 1.0 2.0 42 42
+ 0.01032 1 2 cbr 210 ------- 6 1.0 2.0 43 43
d 0.01032 1 2 cbr 210 ------- 6 1.0 2.0 43 43
+ 0.01056 1 2 cbr 210 ------- 6 1.0 2.0 44 44
d 0.01056 1 2 cbr 210 ------- 6 1.0 2.0 44 44
+ 0.0108 1 2 cbr 210 ------- 6 1.0 2.0 45 45
d 0.0108 1 2 cbr 210 ------- 6 1.0 2.0 45 45
+ 0.01104 1 2 cbr 210 ------- 6 1.0 2.0 46 46
d 0.01104 1 2 cbr 210 ------- 6 1.0 2.0 46 46
+ 0.01128 1 2 cbr 210 ------- 6 1.0 2.0 47 47
d 0.01128 1 2 cbr 210 ------- 6 1.0 2.0 47 47
+ 0.01152 1 2 cbr 210 ------- 6 1.0 2.0 48 48
d 0.01152 1 2 cbr 210 ------- 6 1.0 2.0 48 48
- 0.01176 1 2 cbr 210 ------- 6 1.0 2.0 7 7
+ 0.01176 1 2 cbr 210 ------- 6 1.0 2.0 49 49
+ 0.012 1 2 cbr 210 ------- 6 1.0 2.0 50 50
d 0.012 1 2 cbr 210 ------- 6 1.0 2.0 50 50
+ 0.01224 1 2 cbr 210 ------- 6 1.0 2.0 51 51
d 0.01224 1 2 cbr 210 ------- 6 1.0 2.0 51 51
+ 0.01248 1 2 cbr 210 ------- 6 1.0 2.0 52 52
d 0.01248 1 2 cbr 210 ------- 6 1.0 2.0 52 52
+ 0.01272 1 2 cbr 210 ------- 6 1.0 2.0 53 53
d 0.01272 1 2 cbr 210 ------- 6 1.0 2.0 53 53
+ 0.01296 1 2 cbr 210 ------- 6 1.0 2.0 54 54
d 0.01296 1 2 cbr 210 ------- 6 1.0 2.0 54 54
+ 0.0132 1 2 cbr 210 ------- 6 1.0 2.0 55 55
d 0.0132 1 2 cbr 210 ------- 6 1.0 2.0 55 55
- 0.01344 1 2 cbr 210 ------- 6 1.0 2.0 8 8
+ 0.01344 1 2 cbr 210 ------- 6 1.0 2.0 56 56
+ 0.01368 1 2 cbr 210 ------- 6 1.0 2.0 57 57
d 0.01368 1 2 cbr 210 ------- 6 1.0 2.0 57 57
+ 0.01392 1 2 cbr 210 ------- 6 1.0 2.0 58 58
d 0.01392 1 2 cbr 210 ------- 6 1.0 2.0 58 58
+ 0.01416 1 2 cbr 210 ------- 6 1.0 2.0 59 59
d 0.01416 1 2 cbr 210 ------- 6 1.0 2.0 59 59
+ 0.0144 1 2 cbr 210 ------- 6 1.0 2.0 60 60
d 0.0144 1 2 cbr 210 ------- 6 1.0 2.0 60 60
+ 0.01464 1 2 cbr 210 ------- 6 1.0 2.0 61 61
d 0.01464 1 2 cbr 210 ------- 6 1.0 2.0 61 61
+ 0.01488 1 2 cbr 210 ------- 6 1.0 2.0 62 62
d 0.01488 1 2 cbr 210 ------- 6 1.0 2.0 62 62
- 0.01512 1 2 cbr 210 ------- 6 1.0 2.0 9 9
+ 0.01512 1 2 cbr 210 ------- 6 1.0 2.0 63 63
+ 0.01536 1 2 cbr 210 ------- 6 1.0 2.0 64 64
d 0.01536 1 2 cbr 210 ------- 6 1.0 2.0 64 64
+ 0.0156 1 2 cbr 210 ------- 6 1.0 2.0 65 65
d 0.0156 1 2 cbr 210 ------- 6 1.0 2.0 65 65
+ 0.01584 1 2 cbr 210 ------- 6 1.0 2.0 66 66
d 0.01584 1 2 cbr 210 ------- 6 1.0 2.0 66 66
+ 0.01608 1 2 cbr 210 ------- 6 1.0 2.0 67 67
d 0.01608 1 2 cbr 210 ------- 6 1.0 2.0 67 67
+ 0.01632 1 2 cbr 210 ------- 6 1.0 2.0 68 68
d 0.01632 1 2 cbr 210 ------- 6 1.0 2.0 68 68
+ 0.01656 1 2 cbr 210 ------- 6 1.0 2.0 69 69
d 0.01656 1 2 cbr 210 ------- 6 1.0 2.0 69 69
- 0.0168 1 2 cbr 210 ------- 6 1.0 2.0 10 10
+ 0.0168 1 2 cbr 210 ------- 6 1.0 2.0 70 70
+ 0.01704 1 2 cbr 210 ------- 6 1.0 2.0 71 71
d 0.01704 1 2 cbr 210 ------- 6 1.0 2.0 71 71
+ 0.01728 1 2 cbr 210 ------- 6 1.0 2.0 72 72
d 0.01728 1 2 cbr 210 ------- 6 1.0 2.0 72 72
+ 0.01752 1 2 cbr 210 ------- 6 1.0 2.0 73 73
d 0.01752 1 2 cbr 210 ------- 6 1.0 2.0 73 73
+ 0.01776 1 2 cbr 210 ------- 6 1.0 2.0 74 74
d 0.01776 1 2 cbr 210 ------- 6 1.0 2.0 74 74
+ 0.018 1 2 cbr 210 ------- 6 1.0 2.0 75 75
d 0.018 1 2 cbr 210 ------- 6 1.0 2.0 75 75
+ 0.01824 1 2 cbr 210 ------- 6 1.0 2.0 76 76
d 0.01824 1 2 cbr 210 ------- 6 1.0 2.0 76 76
- 0.01848 1 2 cbr 210 ------- 6 1.0 2.0 11 11
+ 0.01848 1 2 cbr 210 ------- 6 1.0 2.0 77 77
+ 0.01872 1 2 cbr 210 ------- 6 1.0 2.0 78 78
d 0.01872 1 2 cbr 210 ------- 6 1.0 2.0 78 78
+ 0.01896 1 2 cbr 210 ------- 6 1.0 2.0 79 79
d 0.01896 1 2 cbr 210 ------- 6 1.0 2.0 79 79
+ 0.0192 1 2 cbr 210 ------- 6 1.0 2.0 80 80
d 0.0192 1 2 cbr 210 ------- 6 1.0 2.0 80 80
+ 0.01944 1 2 cbr 210 ------- 6 1.0 2.0 81 81
d 0.01944 1 2 cbr 210 ------- 6 1.0 2.0 81 81
+ 0.01968 1 2 cbr 210 ------- 6 1.0 2.0 82 82
d 0.01968 1 2 cbr 210 ------- 6 1.0 2.0 82 82
+ 0.01992 1 2 cbr 210 ------- 6 1.0 2.0 83 83
d 0.01992 1 2 cbr 210 ------- 6 1.0 2.0 83 83
- 0.02016 1 2 cbr 210 ------- 6 1.0 2.0 12 12
+ 0.02016 1 2 cbr 210 ------- 6 1.0 2.0 84 84
+ 0.0204 1 2 cbr 210 ------- 6 1.0 2.0 85 85
d 0.0204 1 2 cbr 210 ------- 6 1.0 2.0 85 85
+ 0.02064 1 2 cbr 210 ------- 6 1.0 2.0 86 86
d 0.02064 1 2 cbr 210 ------- 6 1.0 2.0 86 86
+ 0.02088 1 2 cbr 210 ------- 6 1.0 2.0 87 87
d 0.02088 1 2 cbr 210 ------- 6 1.0 2.0 87 87
+ 0.02112 1 2 cbr 210 ------- 6 1.0 2.0 88 88
d 0.02112 1 2 cbr 210 ------- 6 1.0 2.0 88 88
+ 0.02136 1 2 cbr 210 ------- 6 1.0 2.0 89 89
d 0.02136 1 2 cbr 210 ------- 6 1.0 2.0 89 89
+ 0.0216 1 2 cbr 210 ------- 6 1.0 2.0 90 90
d 0.0216 1 2 cbr 210 ------- 6 1.0 2.0 90 90
r 0.02168 1 2 cbr 210 ------- 6 1.0 2.0 0 0
- 0.02184 1 2 cbr 210 ------- 6 1.0 2.0 13 13
+ 0.02184 1 2 cbr 210 ------- 6 1.0 2.0 91 91
+ 0.02208 1 2 cbr 210 ------- 6 1.0 2.0 92 92
d 0.02208 1 2 cbr 210 ------- 6 1.0 2.0 92 92
+ 0.02232 1 2 cbr 210 ------- 6 1.0 2.0 93 93
d 0.02232 1 2 cbr 210 ------- 6 1.0 2.0 93 93
+ 0.02256 1 2 cbr 210 ------- 6 1.0 2.0 94 94
d 0.02256 1 2 cbr 210 ------- 6 1.0 2.0 94 94
+ 0.0228 1 2 cbr 210 ------- 6 1.0 2.0 95 95
d 0.0228 1 2 cbr 210 ------- 6 1.0 2.0 95 95
+ 0.02304 1 2 cbr 210 ------- 6 1.0 2.0 96 96
d 0.02304 1 2 cbr 210 ------- 6 1.0 2.0 96 96
+ 0.02328 1 2 cbr 210 ------- 6 1.0 2.0 97 97
d 0.02328 1 2 cbr 210 ------- 6 1.0 2.0 97 97
r 0.02336 1 2 cbr 210 ------- 6 1.0 2.0 1 1
- 0.02352 1 2 cbr 210 ------- 6 1.0 2.0 14 14
+ 0.02352 1 2 cbr 210 ------- 6 1.0 2.0 98 98
+ 0.02376 1 2 cbr 210 ------- 6 1.0 2.0 99 99
d 0.02376 1 2 cbr 210 ------- 6 1.0 2.0 99 99
+ 0.024 1 2 cbr 210 ------- 6 1.0 2.0 100 100
d 0.024 1 2 cbr 210 ------- 6 1.0 2.0 100 100
+ 0.02424 1 2 cbr 210 ------- 6 1.0 2.0 101 101
d 0.02424 1 2 cbr 210 ------- 6 1.0 2.0 101 101
+ 0.02448 1 2 cbr 210 ------- 6 1.0 2.0 102 102
d 0.02448 1 2 cbr 210 ------- 6 1.0 2.0 102 102
+ 0.02472 1 2 cbr 210 ------- 6 1.0 2.0 103 103
d 0.02472 1 2 cbr 210 ------- 6 1.0 2.0 103 103
+ 0.02496 1 2 cbr 210 ------- 6 1.0 2.0 104 104
d 0.02496 1 2 cbr 210 ------- 6 1.0 2.0 104 104
r 0.02504 1 2 cbr 210 ------- 6 1.0 2.0 2 2
- 0.0252 1 2 cbr 210 ------- 6 1.0 2.0 15 15
+ 0.0252 1 2 cbr 210 ------- 6 1.0 2.0 105 105
+ 0.02544 1 2 cbr 210 ------- 6 1.0 2.0 106 106
d 0.02544 1 2 cbr 210 ------- 6 1.0 2.0 106 106
+ 0.02568 1 2 cbr 210 ------- 6 1.0 2.0 107 107
d 0.02568 1 2 cbr 210 ------- 6 1.0 2.0 107 107
+ 0.02592 1 2 cbr 210 ------- 6 1.0 2.0 108 108
d 0.02592 1 2 cbr 210 ------- 6 1.0 2.0 108 108
+ 0.02616 1 2 cbr 210 ------- 6 1.0 2.0 109 109
d 0.02616 1 2 cbr 210 ------- 6 1.0 2.0 109 109
+ 0.0264 1 2 cbr 210 ------- 6 1.0 2.0 110 110
d 0.0264 1 2 cbr 210 ------- 6 1.0 2.0 110 110
+ 0.02664 1 2 cbr 210 ------- 6 1.0 2.0 111 111
d 0.02664 1 2 cbr 210 ------- 6 1.0 2.0 111 111
r 0.02672 1 2 cbr 210 ------- 6 1.0 2.0 3 3
- 0.02688 1 2 cbr 210 ------- 6 1.0 2.0 16 16
+ 0.02688 1 2 cbr 210 ------- 6 1.0 2.0 112 112
+ 0.02712 1 2 cbr 210 ------- 6 1.0 2.0 113 113
d 0.02712 1 2 cbr 210 ------- 6 1.0 2.0 113 113
+ 0.02736 1 2 cbr 210 ------- 6 1.0 2.0 114 114
d 0.02736 1 2 cbr 210 ------- 6 1.0 2.0 114 114
+ 0.0276 1 2 cbr 210 ------- 6 1.0 2.0 115 115
d 0.0276 1 2 cbr 210 ------- 6 1.0 2.0 115 115
+ 0.02784 1 2 cbr 210 ------- 6 1.0 2.0 116 116
d 0.02784 1 2 cbr 210 ------- 6 1.0 2.0 116 116
+ 0.02808 1 2 cbr 210 ------- 6 1.0 2.0 117 117
d 0.02808 1 2 cbr 210 ------- 6 1.0 2.0 117 117
+ 0.02832 1 2 cbr 210 ------- 6 1.0 2.0 118 118
d 0.02832 1 2 cbr 210 ------- 6 1.0 2.0 118 118
r 0.0284 1 2 cbr 210 ------- 6 1.0 2.0 4 4
- 0.02856 1 2 cbr 210 ------- 6 1.0 2.0 17 17
+ 0.02856 1 2 cbr 210 ------- 6 1.0 2.0 119 119
+ 0.0288 1 2 cbr 210 ------- 6 1.0 2.0 120 120
d 0.0288 1 2 cbr 210 ------- 6 1.0 2.0 120 120
+ 0.02904 1 2 cbr 210 ------- 6 1.0 2.0 121 121
d 0.02904 1 2 cbr 210 ------- 6 1.0 2.0 121 121
+ 0.02928 1 2 cbr 210 ------- 6 1.0 2.0 122 122
d 0.02928 1 2 cbr 210 ------- 6 1.0 2.0 122 122
+ 0.02952 1 2 cbr 210 ------- 6 1.0 2.0 123 123
d 0.02952 1 2 cbr 210 ------- 6 1.0 2.0 123 123
+ 0.02976 1 2 cbr 210 ------- 6 1.0 2.0 124 124
d 0.02976 1 2 cbr 210 ------- 6 1.0 2.0 124 124
+ 0.03 1 2 cbr 210 ------- 6 1.0 2.0 125 125
d 0.03 1 2 cbr 210 ------- 6 1.0 2.0 125 125
r 0.03008 1 2 cbr 210 ------- 6 1.0 2.0 5 5
- 0.03024 1 2 cbr 210 ------- 6 1.0 2.0 18 18
+ 0.03024 1 2 cbr 210 ------- 6 1.0 2.0 126 126
+ 0.03048 1 2 cbr 210 ------- 6 1.0 2.0 127 127
d 0.03048 1 2 cbr 210 ------- 6 1.0 2.0 127 127
+ 0.03072 1 2 cbr 210 ------- 6 1.0 2.0 128 128
d 0.03072 1 2 cbr 210 ------- 6 1.0 2.0 128 128
+ 0.03096 1 2 cbr 210 ------- 6 1.0 2.0 129 129
d 0.03096 1 2 cbr 210 ------- 6 1.0 2.0 129 129
+ 0.0312 1 2 cbr 210 ------- 6 1.0 2.0 130 130
d 0.0312 1 2 cbr 210 ------- 6 1.0 2.0 130 130
+ 0.03144 1 2 cbr 210 ------- 6 1.0 2.0 131 131
d 0.03144 1 2 cbr 210 ------- 6 1.0 2.0 131 131
+ 0.03168 1 2 cbr 210 ------- 6 1.0 2.0 132 132
d 0.03168 1 2 cbr 210 ------- 6 1.0 2.0 132 132
r 0.03176 1 2 cbr 210 ------- 6 1.0 2.0 6 6
- 0.03192 1 2 cbr 210 ------- 6 1.0 2.0 19 19
+ 0.03192 1 2 cbr 210 ------- 6 1.0 2.0 133 133
+ 0.03216 1 2 cbr 210 ------- 6 1.0 2.0 134 134
d 0.03216 1 2 cbr 210 ------- 6 1.0 2.0 134 134
+ 0.0324 1 2 cbr 210 ------- 6 1.0 2.0 135 135
d 0.0324 1 2 cbr 210 ------- 6 1.0 2.0 135 135
+ 0.03264 1 2 cbr 210 ------- 6 1.0 2.0 136 136
d 0.03264 1 2 cbr 210 ------- 6 1.0 2.0 136 136
+ 0.03288 1 2 cbr 210 ------- 6 1.0 2.0 137 137
d 0.03288 1 2 cbr 210 ------- 6 1.0 2.0 137 137
+ 0.03312 1 2 cbr 210 ------- 6 1.0 2.0 138 138
d 0.03312 1 2 cbr 210 ------- 6 1.0 2.0 138 138
+ 0.03336 1 2 cbr 210 ------- 6 1.0 2.0 139 139
d 0.03336 1 2 cbr 210 ------- 6 1.0 2.0 139 139
r 0.03344 1 2 cbr 210 ------- 6 1.0 2.0 7 7
- 0.0336 1 2 cbr 210 ------- 6 1.0 2.0 20 20
+ 0.0336 1 2 cbr 210 ------- 6 1.0 2.0 140 140
+ 0.03384 1 2 cbr 210 ------- 6 1.0 2.0 141 141
d 0.03384 1 2 cbr 210 ------- 6 1.0 2.0 141 141
+ 0.03408 1 2 cbr 210 ------- 6 1.0 2.0 142 142
d 0.03408 1 2 cbr 210 ------- 6 1.0 2.0 142 142
+ 0.03432 1 2 cbr 210 ------- 6 1.0 2.0 143 143
d 0.03432 1 2 cbr 210 ------- 6 1.0 2.0 143 143
+ 0.03456 1 2 cbr 210 ------- 6 1.0 2.0 144 144
d 0.03456 1 2 cbr 210 ------- 6 1.0 2.0 144 144
+ 0.0348 1 2 cbr 210 ------- 6 1.0 2.0 145 145
d 0.0348 1 2 cbr 210 ------- 6 1.0 2.0 145 145
+ 0.03504 1 2 cbr 210 ------- 6 1.0 2.0 146 146
d 0.03504 1 2 cbr 210 ------- 6 1.0 2.0 146 146
r 0.03512 1 2 cbr 210 ------- 6 1.0 2.0 8 8
- 0.03528 1 2 cbr 210 ------- 6 1.0 2.0 21 21
+ 0.03528 1 2 cbr 210 ------- 6 1.0 2.0 147 147
+ 0.03552 1 2 cbr 210 ------- 6 1.0 2.0 148 148
d 0.03552 1 2 cbr 210 ------- 6 1.0 2.0 148 148
+ 0.03576 1 2 cbr 210 ------- 6 1.0 2.0 149 149
d 0.03576 1 2 cbr 210 ------- 6 1.0 2.0 149 149
+ 0.036 1 2 cbr 210 ------- 6 1.0 2.0 150 150
d 0.036 1 2 cbr 210 ------- 6 1.0 2.0 150 150
+ 0.03624 1 2 cbr 210 ------- 6 1.0 2.0 151 151
d 0.03624 1 2 cbr 210 ------- 6 1.0 2.0 151 151
+ 0.03648 1 2 cbr 210 ------- 6 1.0 2.0 152 152
d 0.03648 1 2 cbr 210 ------- 6 1.0 2.0 152 152
+ 0.03672 1 2 cbr 210 ------- 6 1.0 2.0 153 153
d 0.03672 1 2 cbr 210 ------- 6 1.0 2.0 153 153
r 0.0368 1 2 cbr 210 ------- 6 1.0 2.0 9 9
+ 0.03696 1 2 cbr 210 ------- 6 1.0 2.0 154 154
d 0.03696 1 2 cbr 210 ------- 6 1.0 2.0 154 154
- 0.03696 1 2 cbr 210 ------- 6 1.0 2.0 22 22
+ 0.0372 1 2 cbr 210 ------- 6 1.0 2.0 155 155
+ 0.03744 1 2 cbr 210 ------- 6 1.0 2.0 156 156
d 0.03744 1 2 cbr 210 ------- 6 1.0 2.0 156 156
+ 0.03768 1 2 cbr 210 ------- 6 1.0 2.0 157 157
d 0.03768 1 2 cbr 210 ------- 6 1.0 2.0 157 157
+ 0.03792 1 2 cbr 210 ------- 6 1.0 2.0 158 158
d 0.03792 1 2 cbr 210 ------- 6 1.0 2.0 158 158
+ 0.03816 1 2 cbr 210 ------- 6 1.0 2.0 159 159
d 0.03816 1 2 cbr 210 ------- 6 1.0 2.0 159 159
+ 0.0384 1 2 cbr 210 ------- 6 1.0 2.0 160 160
d 0.0384 1 2 cbr 210 ------- 6 1.0 2.0 160 160
r 0.03848 1 2 cbr 210 ------- 6 1.0 2.0 10 10
+ 0.03864 1 2 cbr 210 ------- 6 1.0 2.0 161 161
d 0.03864 1 2 cbr 210 ------- 6 1.0 2.0 161 161
- 0.03864 1 2 cbr 210 ------- 6 1.0 2.0 29 29
+ 0.03888 1 2 cbr 210 ------- 6 1.0 2.0 162 162
+ 0.03912 1 2 cbr 210 ------- 6 1.0 2.0 163 163
d 0.03912 1 2 cbr 210 ------- 6 1.0 2.0 163 163
+ 0.03936 1 2 cbr 210 ------- 6 1.0 2.0 164 164
d 0.03936 1 2 cbr 210 ------- 6 1.0 2.0 164 164
+ 0.0396 1 2 cbr 210 ------- 6 1.0 2.0 165 165
d 0.0396 1 2 cbr 210 ------- 6 1.0 2.0 165 165
+ 0.03984 1 2 cbr 210 ------- 6 1.0 2.0 166 166
d 0.03984 1 2 cbr 210 ------- 6 1.0 2.0 166 166
+ 0.04008 1 2 cbr 210 ------- 6 1.0 2.0 167 167
d 0.04008 1 2 cbr 210 ------- 6 1.0 2.0 167 167
r 0.04016 1 2 cbr 210 ------- 6 1.0 2.0 11 11
+ 0.04032 1 2 cbr 210 ------- 6 1.0 2.0 168 168
d 0.04032 1 2 cbr 210 ------- 6 1.0 2.0 168 168
- 0.04032 1 2 cbr 210 ------- 6 1.0 2.0 36 36
+ 0.04056 1 2 cbr 210 ------- 6 1.0 2.0 169 169
+ 0.0408 1 2 cbr 210 ------- 6 1.0 2.0 170 170
d 0.0408 1 2 cbr 210 ------- 6 1.0 2.0 170 170
+ 0.04104 1 2 cbr 210 ------- 6 1.0 2.0 171 171
d 0.04104 1 2 cbr 210 ------- 6 1.0 2.0 171 171
+ 0.04128 1 2 cbr 210 ------- 6 1.0 2.0 172 172
d 0.04128 1 2 cbr 210 ------- 6 1.0 2.0 172 172
+ 0.04152 1 2 cbr 210 ------- 6 1.0 2.0 173 173
d 0.04152 1 2 cbr 210 ------- 6 1.0 2.0 173 173
+ 0.04176 1 2 cbr 210 ------- 6 1.0 2.0 174 174
d 0.04176 1 2 cbr 210 ------- 6 1.0 2.0 174 174
r 0.04184 1 2 cbr 210 ------- 6 1.0 2.0 12 12
+ 0.042 1 2 cbr 210 ------- 6 1.0 2.0 175 175
d 0.042 1 2 cbr 210 ------- 6 1.0 2.0 175 175
- 0.042 1 2 cbr 210 ------- 6 1.0 2.0 42 42
+ 0.04224 1 2 cbr 210 ------- 6 1.0 2.0 176 176
+ 0.04248 1 2 cbr 210 ------- 6 1.0 2.0 177 177
d 0.04248 1 2 cbr 210 ------- 6 1.0 2.0 177 177
+ 0.04272 1 2 cbr 210 ------- 6 1.0 2.0 178 178
d 0.04272 1 2 cbr 210 ------- 6 1.0 2.0 178 178
+ 0.04296 1 2 cbr 210 ------- 6 1.0 2.0 179 179
d 0.04296 1 2 cbr 210 ------- 6 1.0 2.0 179 179
+ 0.0432 1 2 cbr 210 ------- 6 1.0 2.0 180 180
d 0.0432 1 2 cbr 210 ------- 6 1.0 2.0 180 180
+ 0.04344 1 2 cbr 210 ------- 6 1.0 2.0 181 181
d 0.04344 1 2 cbr 210 ------- 6 1.0 2.0 181 181
r 0.04352 1 2 cbr 210 ------- 6 1.0 2.0 13 13
+ 0.04368 1 2 cbr 210 ------- 6 1.0 2.0 182 182
d 0.04368 1 2 cbr 210 ------- 6 1.0 2.0 182 182
- 0.04368 1 2 cbr 210 ------- 6 1.0 2.0 49 49
+ 0.04392 1 2 cbr 210 ------- 6 1.0 2.0 183 183
+ 0.04416 1 2 cbr 210 ------- 6 1.0 2.0 184 184
d 0.04416 1 2 cbr 210 ------- 6 1.0 2.0 184 184
+ 0.0444 1 2 cbr 210 ------- 6 1.0 2.0 185 185
d 0.0444 1 2 cbr 210 ------- 6 1.0 2.0 185 185
+ 0.04464 1 2 cbr 210 ------- 6 1.0 2.0 186 186
d 0.04464 1 2 cbr 210 ------- 6 1.0 2.0 186 186
+ 0.04488 1 2 cbr 210 ------- 6 1.0 2.0 187 187
d 0.04488 1 2 cbr 210 ------- 6 1.0 2.0 187 187
+ 0.04512 1 2 cbr 210 ------- 6 1.0 2.0 188 188
d 0.04512 1 2 cbr 210 ------- 6 1.0 2.0 188 188
r 0.0452 1 2 cbr 210 ------- 6 1.0 2.0 14 14
+ 0.04536 1 2 cbr 210 ------- 6 1.0 2.0 189 189
d 0.04536 1 2 cbr 210 ------- 6 1.0 2.0 189 189
- 0.04536 1 2 cbr 210 ------- 6 1.0 2.0 56 56
+ 0.0456 1 2 cbr 210 ------- 6 1.0 2.0 190 190
+ 0.04584 1 2 cbr 210 ------- 6 1.0 2.0 191 191
d 0.04584 1 2 cbr 210 ------- 6 1.0 2.0 191 191
+ 0.04608 1 2 cbr 210 ------- 6 1.0 2.0 192 192
d 0.04608 1 2 cbr 210 ------- 6 1.0 2.0 192 192
+ 0.04632 1 2 cbr 210 ------- 6 1.0 2.0 193 193
d 0.04632 1 2 cbr 210 ------- 6 1.0 2.0 193 193
+ 0.04656 1 2 cbr 210 ------- 6 1.0 2.0 194 194
d 0.04656 1 2 cbr 210 ------- 6 1.0 2.0 194 194
+ 0.0468 1 2 cbr 210 ------- 6 1.0 2.0 195 195
d 0.0468 1 2 cbr 210 ------- 6 1.0 2.0 195 195
r 0.04688 1 2 cbr 210 ------- 6 1.0 2.0 15 15
+ 0.04704 1 2 cbr 210 ------- 6 1.0 2.0 196 196
d 0.04704 1 2 cbr 210 ------- 6 1.0 2.0 196 196
- 0.04704 1 2 cbr 210 ------- 6 1.0 2.0 63 63
+ 0.04728 1 2 cbr 210 ------- 6 1.0 2.0 197 197
+ 0.04752 1 2 cbr 210 ------- 6 1.0 2.0 198 198
d 0.04752 1 2 cbr 210 ------- 6 1.0 2.0 198 198
+ 0.04776 1 2 cbr 210 ------- 6 1.0 2.0 199 199
d 0.04776 1 2 cbr 210 ------- 6 1.0 2.0 199 199
+ 0.048 1 2 cbr 210 ------- 6 1.0 2.0 200 200
d 0.048 1 2 cbr 210 ------- 6 1.0 2.0 200 200
+ 0.04824 1 2 cbr 210 ------- 6 1.0 2.0 201 201
d 0.04824 1 2 cbr 210 ------- 6 1.0 2.0 201 201
+ 0.04848 1 2 cbr 210 ------- 6 1.0 2.0 202 202
d 0.04848 1 2 cbr 210 ------- 6 1.0 2.0 202 202
r 0.04856 1 2 cbr 210 ------- 6 1.0 2.0 16 16
+ 0.04872 1 2 cbr 210 ------- 6 1.0 2.0 203 203
d 0.04872 1 2 cbr 210 ------- 6 1.0 2.0 203 203
- 0.04872 1 2 cbr 210 ------- 6 1.0 2.0 70 70
+ 0.04896 1 2 cbr 210 ------- 6 1.0 2.0 204 204
+ 0.0492 1 2 cbr 210 ------- 6 1.0 2.0 205 205
d 0.0492 1 2 cbr 210 ------- 6 1.0 2.0 205 205
+ 0.04944 1 2 cbr 210 ------- 6 1.0 2.0 206 206
d 0.04944 1 2 cbr 210 ------- 6 1.0 2.0 206 206
+ 0.04968 1 2 cbr 210 ------- 6 1.0 2.0 207 207
d 0.04968 1 2 cbr 210 ------- 6 1.0 2.0 207 207
+ 0.04992 1 2 cbr 210 ------- 6 1.0 2.0 208 208
d 0.04992 1 2 cbr 210 ------- 6 1.0 2.0 208 208
+ 0.05016 1 2 cbr 210 ------- 6 1.0 2.0 209 209
d 0.05016 1 2 cbr 210 ------- 6 1.0 2.0 209 209
r 0.05024 1 2 cbr 210 ------- 6 1.0 2.0 17 17
+ 0.0504 1 2 cbr 210 ------- 6 1.0 2.0 210 210
d 0.0504 1 2 cbr 210 ------- 6 1.0 2.0 210 210
- 0.0504 1 2 cbr 210 ------- 6 1.0 2.0 77 77
+ 0.05064 1 2 cbr 210 ------- 6 1.0 2.0 211 211
+ 0.05088 1 2 cbr 210 ------- 6 1.0 2.0 212 212
d 0.05088 1 2 cbr 210 ------- 6 1.0 2.0 212 212
+ 0.05112 1 2 cbr 210 ------- 6 1.0 2.0 213 213
d 0.05112 1 2 cbr 210 ------- 6 1.0 2.0 213 213
+ 0.05136 1 2 cbr 210 ------- 6 1.0 2.0 214 214
d 0.05136 1 2 cbr 210 ------- 6 1.0 2.0 214 214
+ 0.0516 1 2 cbr 210 ------- 6 1.0 2.0 215 215
d 0.0516 1 2 cbr 210 ------- 6 1.0 2.0 215 215
+ 0.05184 1 2 cbr 210 ------- 6 1.0 2.0 216 216
d 0.05184 1 2 cbr 210 ------- 6 1.0 2.0 216 216
r 0.05192 1 2 cbr 210 ------- 6 1.0 2.0 18 18
+ 0.05208 1 2 cbr 210 ------- 6 1.0 2.0 217 217
d 0.05208 1 2 cbr 210 ------- 6 1.0 2.0 217 217
- 0.05208 1 2 cbr 210 ------- 6 1.0 2.0 84 84
+ 0.05232 1 2 cbr 210 ------- 6 1.0 2.0 218 218
+ 0.05256 1 2 cbr 210 ------- 6 1.0 2.0 219 219
d 0.05256 1 2 cbr 210 ------- 6 1.0 2.0 219 219
+ 0.0528 1 2 cbr 210 ------- 6 1.0 2.0 220 220
d 0.0528 1 2 cbr 210 ------- 6 1.0 2.0 220 220
+ 0.05304 1 2 cbr 210 ------- 6 1.0 2.0 221 221
d 0.05304 1 2 cbr 210 ------- 6 1.0 2.0 221 221
+ 0.05328 1 2 cbr 210 ------- 6 1.0 2.0 222 222
d 0.05328 1 2 cbr 210 ------- 6 1.0 2.0 222 222
+ 0.05352 1 2 cbr 210 ------- 6 1.0 2.0 223 223
d 0.05352 1 2 cbr 210 ------- 6 1.0 2.0 223 223
r 0.0536 1 2 cbr 210 ------- 6 1.0 2.0 19 19
+ 0.05376 1 2 cbr 210 ------- 6 1.0 2.0 224 224
d 0.05376 1 2 cbr 210 ------- 6 1.0 2.0 224 224
- 0.05376 1 2 cbr 210 ------- 6 1.0 2.0 91 91
+ 0.054 1 2 cbr 210 ------- 6 1.0 2.0 225 225
+ 0.05424 1 2 cbr 210 ------- 6 1.0 2.0 226 226
d 0.05424 1 2 cbr 210 ------- 6 1.0 2.0 226 226
+ 0.05448 1 2 cbr 210 ------- 6 1.0 2.0 227 227
d 0.05448 1 2 cbr 210 ------- 6 1.0 2.0 227 227
+ 0.05472 1 2 cbr 210 ------- 6 1.0 2.0 228 228
d 0.05472 1 2 cbr 210 ------- 6 1.0 2.0 228 228
+ 0.05496 1 2 cbr 210 ------- 6 1.0 2.0 229 229
d 0.05496 1 2 cbr 210 ------- 6 1.0 2.0 229 229
+ 0.0552 1 2 cbr 210 ------- 6 1.0 2.0 230 230
d 0.0552 1 2 cbr 210 ------- 6 1.0 2.0 230 230
r 0.05528 1 2 cbr 210 ------- 6 1.0 2.0 20 20
+ 0.05544 1 2 cbr 210 ------- 6 1.0 2.0 231 231
d 0.05544 1 2 cbr 210 ------- 6 1.0 2.0 231 231
- 0.05544 1 2 cbr 210 ------- 6 1.0 2.0 98 98
+ 0.05568 1 2 cbr 210 ------- 6 1.0 2.0 232 232
+ 0.05592 1 2 cbr 210 ------- 6 1.0 2.0 233 233
d 0.05592 1 2 cbr 210 ------- 6 1.0 2.0 233 233
+ 0.05616 1 2 cbr 210 ------- 6 1.0 2.0 234 234
d 0.05616 1 2 cbr 210 ------- 6 1.0 2.0 234 234
+ 0.0564 1 2 cbr 210 ------- 6 1.0 2.0 235 235
d 0.0564 1 2 cbr 210 ------- 6 1.0 2.0 235 235
+ 0.05664 1 2 cbr 210 ------- 6 1.0 2.0 236 236
d 0.05664 1 2 cbr 210 ------- 6 1.0 2.0 236 236
+ 0.05688 1 2 cbr 210 ------- 6 1.0 2.0 237 237
d 0.05688 1 2 cbr 210 ------- 6 1.0 2.0 237 237
r 0.05696 1 2 cbr 210 ------- 6 1.0 2.0 21 21
+ 0.05712 1 2 cbr 210 ------- 6 1.0 2.0 238 238
d 0.05712 1 2 cbr 210 ------- 6 1.0 2.0 238 238
- 0.05712 1 2 cbr 210 ------- 6 1.0 2.0 105 105
+ 0.05736 1 2 cbr 210 ------- 6 1.0 2.0 239 239
+ 0.0576 1 2 cbr 210 ------- 6 1.0 2.0 240 240
d 0.0576 1 2 cbr 210 ------- 6 1.0 2.0 240 240
+ 0.05784 1 2 cbr 210 ------- 6 1.0 2.0 241 241
d 0.05784 1 2 cbr 210 ------- 6 1.0 2.0 241 241
+ 0.05808 1 2 cbr 210 ------- 6 1.0 2.0 242 242
d 0.05808 1 2 cbr 210 ------- 6 1.0 2.0 242 242
+ 0.05832 1 2 cbr 210 ------- 6 1.0 2.0 243 243
d 0.05832 1 2 cbr 210 ------- 6 1.0 2.0 243 243
+ 0.05856 1 2 cbr 210 ------- 6 1.0 2.0 244 244
d 0.05856 1 2 cbr 210 ------- 6 1.0 2.0 244 244
r 0.05864 1 2 cbr 210 ------- 6 1.0 2.0 22 22
+ 0.0588 1 2 cbr 210 ------- 6 1.0 2.0 245 245
d 0.0588 1 2 cbr 210 ------- 6 1.0 2.0 245 245
- 0.0588 1 2 cbr 210 ------- 6 1.0 2.0 112 112
+ 0.05904 1 2 cbr 210 ------- 6 1.0 2.0 246 246
+ 0.05928 1 2 cbr 210 ------- 6 1.0 2.0 247 247
d 0.05928 1 2 cbr 210 ------- 6 1.0 2.0 247 247
+ 0.05952 1 2 cbr 210 ------- 6 1.0 2.0 248 248
d 0.05952 1 2 cbr 210 ------- 6 1.0 2.0 248 248
+ 0.05976 1 2 cbr 210 ------- 6 1.0 2.0 249 249
d 0.05976 1 2 cbr 210 ------- 6 1.0 2.0 249 249
+ 0.06 1 2 cbr 210 ------- 6 1.0 2.0 250 250
d 0.06 1 2 cbr 210 ------- 6 1.0 2.0 250 250
+ 0.06024 1 2 cbr 210 ------- 6 1.0 2.0 251 251
d 0.06024 1 2 cbr 210 ------- 6 1.0 2.0 251 251
r 0.06032 1 2 cbr 210 ------- 6 1.0 2.0 29 29
+ 0.06048 1 2 cbr 210 ------- 6 1.0 2.0 252 252
d 0.06048 1 2 cbr 210 ------- 6 1.0 2.0 252 252
- 0.06048 1 2 cbr 210 ------- 6 1.0 2.0 119 119
+ 0.06072 1 2 cbr 210 ------- 6 1.0 2.0 253 253
+ 0.06096 1 2 cbr 210 ------- 6 1.0 2.0 254 254
d 0.06096 1 2 cbr 210 ------- 6 1.0 2.0 254 254
+ 0.0612 1 2 cbr 210 ------- 6 1.0 2.0 255 255
d 0.0612 1 2 cbr 210 ------- 6 1.0 2.0 255 255
+ 0.06144 1 2 cbr 210 ------- 6 1.0 2.0 256 256
d 0.06144 1 2 cbr 210 ------- 6 1.0 2.0 256 256
+ 0.06168 1 2 cbr 210 ------- 6 1.0 2.0 257 257
d 0.06168 1 2 cbr 210 ------- 6 1.0 2.0 257 257
+ 0.06192 1 2 cbr 210 ------- 6 1.0 2.0 258 258
d 0.06192 1 2 cbr 210 ------- 6 1.0 2.0 258 258
r 0.062 1 2 cbr 210 ------- 6 1.0 2.0 36 36
+ 0.06216 1 2 cbr 210 ------- 6 1.0 2.0 259 259
d 0.06216 1 2 cbr 210 ------- 6 1.0 2.0 259 259
- 0.06216 1 2 cbr 210 ------- 6 1.0 2.0 126 126
+ 0.0624 1 2 cbr 210 ------- 6 1.0 2.0 260 260
+ 0.06264 1 2 cbr 210 ------- 6 1.0 2.0 261 261
d 0.06264 1 2 cbr 210 ------- 6 1.0 2.0 261 261
+ 0.06288 1 2 cbr 210 ------- 6 1.0 2.0 262 262
d 0.06288 1 2 cbr 210 ------- 6 1.0 2.0 262 262
+ 0.06312 1 2 cbr 210 ------- 6 1.0 2.0 263 263
d 0.06312 1 2 cbr 210 ------- 6 1.0 2.0 263 263
+ 0.06336 1 2 cbr 210 ------- 6 1.0 2.0 264 264
d 0.06336 1 2 cbr 210 ------- 6 1.0 2.0 264 264
+ 0.0636 1 2 cbr 210 ------- 6 1.0 2.0 265 265
d 0.0636 1 2 cbr 210 ------- 6 1.0 2.0 265 265
r 0.06368 1 2 cbr 210 ------- 6 1.0 2.0 42 42
+ 0.06384 1 2 cbr 210 ------- 6 1.0 2.0 266 266
d 0.06384 1 2 cbr 210 ------- 6 1.0 2.0 266 266
- 0.06384 1 2 cbr 210 ------- 6 1.0 2.0 133 133
+ 0.06408 1 2 cbr 210 ------- 6 1.0 2.0 267 267
+ 0.06432 1 2 cbr 210 ------- 6 1.0 2.0 268 268
d 0.06432 1 2 cbr 210 ------- 6 1.0 2.0 268 268
+ 0.06456 1 2 cbr 210 ------- 6 1.0 2.0 269 269
d 0.06456 1 2 cbr 210 ------- 6 1.0 2.0 269 269
+ 0.0648 1 2 cbr 210 ------- 6 1.0 2.0 270 270
d 0.0648 1 2 cbr 210 ------- 6 1.0 2.0 270 270
+ 0.06504 1 2 cbr 210 ------- 6 1.0 2.0 271 271
d 0.06504 1 2 cbr 210 ------- 6 1.0 2.0 271 271
+ 0.06528 1 2 cbr 210 ------- 6 1.0 2.0 272 272
d 0.06528 1 2 cbr 210 ------- 6 1.0 2.0 272 272
r 0.06536 1 2 cbr 210 ------- 6 1.0 2.0 49 49
+ 0.06552 1 2 cbr 210 ------- 6 1.0 2.0 273 273
d 0.06552 1 2 cbr 210 ------- 6 1.0 2.0 273 273
- 0.06552 1 2 cbr 210 ------- 6 1.0 2.0 140 140
+ 0.06576 1 2 cbr 210 ------- 6 1.0 2.0 274 274
+ 0.066 1 2 cbr 210 ------- 6 1.0 2.0 275 275
d 0.066 1 2 cbr 210 ------- 6 1.0 2.0 275 275
+ 0.06624 1 2 cbr 210 ------- 6 1.0 2.0 276 276
d 0.06624 1 2 cbr 210 ------- 6 1.0 2.0 276 276
+ 0.06648 1 2 cbr 210 ------- 6 1.0 2.0 277 277
d 0.06648 1 2 cbr 210 ------- 6 1.0 2.0 277 277
+ 0.06672 1 2 cbr 210 ------- 6 1.0 2.0 278 278
d 0.06672 1 2 cbr 210 ------- 6 1.0 2.0 278 278
+ 0.06696 1 2 cbr 210 ------- 6 1.0 2.0 279 279
d 0.06696 1 2 cbr 210 ------- 6 1.0 2.0 279 279
r 0.06704 1 2 cbr 210 ------- 6 1.0 2.0 56 56
+ 0.0672 1 2 cbr 210 ------- 6 1.0 2.0 280 280
d 0.0672 1 2 cbr 210 ------- 6 1.0 2.0 280 280
- 0.0672 1 2 cbr 210 ------- 6 1.0 2.0 147 147
+ 0.06744 1 2 cbr 210 ------- 6 1.0 2.0 281 281
+ 0.06768 1 2 cbr 210 ------- 6 1.0 2.0 282 282
d 0.06768 1 2 cbr 210 ------- 6 1.0 2.0 282 282
+ 0.06792 1 2 cbr 210 ------- 6 1.0 2.0 283 283
d 0.06792 1 2 cbr 210 ------- 6 1.0 2.0 283 283
+ 0.06816 1 2 cbr 210 ------- 6 1.0 2.0 284 284
d 0.06816 1 2 cbr 210 ------- 6 1.0 2.0 284 284
+ 0.0684 1 2 cbr 210 ------- 6 1.0 2.0 285 285
d 0.0684 1 2 cbr 210 ------- 6 1.0 2.0 285 285
+ 0.06864 1 2 cbr 210 ------- 6 1.0 2.0 286 286
d 0.06864 1 2 cbr 210 ------- 6 1.0 2.0 286 286
r 0.06872 1 2 cbr 210 ------- 6 1.0 2.0 63 63
+ 0.06888 1 2 cbr 210 ------- 6 1.0 2.0 287 287
d 0.06888 1 2 cbr 210 ------- 6 1.0 2.0 287 287
- 0.06888 1 2 cbr 210 ------- 6 1.0 2.0 155 155
+ 0.06912 1 2 cbr 210 ------- 6 1.0 2.0 288 288
+ 0.06936 1 2 cbr 210 ------- 6 1.0 2.0 289 289
d 0.06936 1 2 cbr 210 ------- 6 1.0 2.0 289 289
+ 0.0696 1 2 cbr 210 ------- 6 1.0 2.0 290 290
d 0.0696 1 2 cbr 210 ------- 6 1.0 2.0 290 290
+ 0.06984 1 2 cbr 210 ------- 6 1.0 2.0 291 291
d 0.06984 1 2 cbr 210 ------- 6 1.0 2.0 291 291
+ 0.07008 1 2 cbr 210 ------- 6 1.0 2.0 292 292
d 0.07008 1 2 cbr 210 ------- 6 1.0 2.0 292 292
+ 0.07032 1 2 cbr 210 ------- 6 1.0 2.0 293 293
d 0.07032 1 2 cbr 210 ------- 6 1.0 2.0 293 293
r 0.0704 1 2 cbr 210 ------- 6 1.0 2.0 70 70
+ 0.07056 1 2 cbr 210 ------- 6 1.0 2.0 294 294
d 0.07056 1 2 cbr 210 ------- 6 1.0 2.0 294 294
- 0.07056 1 2 cbr 210 ------- 6 1.0 2.0 162 162
+ 0.0708 1 2 cbr 210 ------- 6 1.0 2.0 295 295
+ 0.07104 1 2 cbr 210 ------- 6 1.0 2.0 296 296
d 0.07104 1 2 cbr 210 ------- 6 1.0 2.0 296 296
+ 0.07128 1 2 cbr 210 ------- 6 1.0 2.0 297 297
d 0.07128 1 2 cbr 210 ------- 6 1.0 2.0 297 297
+ 0.07152 1 2 cbr 210 ------- 6 1.0 2.0 298 298
d 0.07152 1 2 cbr 210 ------- 6 1.0 2.0 298 298
+ 0.07176 1 2 cbr 210 ------- 6 1.0 2.0 299 299
d 0.07176 1 2 cbr 210 ------- 6 1.0 2.0 299 299
+ 0.072 1 2 cbr 210 ------- 6 1.0 2.0 300 300
d 0.072 1 2 cbr 210 ------- 6 1.0 2.0 300 300
r 0.07208 1 2 cbr 210 ------- 6 1.0 2.0 77 77
+ 0.07224 1 2 cbr 210 ------- 6 1.0 2.0 301 301
d 0.07224 1 2 cbr 210 ------- 6 1.0 2.0 301 301
- 0.07224 1 2 cbr 210 ------- 6 1.0 2.0 169 169
+ 0.07248 1 2 cbr 210 ------- 6 1.0 2.0 302 302
+ 0.07272 1 2 cbr 210 ------- 6 1.0 2.0 303 303
d 0.07272 1 2 cbr 210 ------- 6 1.0 2.0 303 303
+ 0.07296 1 2 cbr 210 ------- 6 1.0 2.0 304 304
d 0.07296 1 2 cbr 210 ------- 6 1.0 2.0 304 304
+ 0.0732 1 2 cbr 210 ------- 6 1.0 2.0 305 305
d 0.0732 1 2 cbr 210 ------- 6 1.0 2.0 305 305
+ 0.07344 1 2 cbr 210 ------- 6 1.0 2.0 306 306
d 0.07344 1 2 cbr 210 ------- 6 1.0 2.0 306 306
+ 0.07368 1 2 cbr 210 ------- 6 1.0 2.0 307 307
d 0.07368 1 2 cbr 210 ------- 6 1.0 2.0 307 307
r 0.07376 1 2 cbr 210 ------- 6 1.0 2.0 84 84
+ 0.07392 1 2 cbr 210 ------- 6 1.0 2.0 308 308
d 0.07392 1 2 cbr 210 ------- 6 1.0 2.0 308 308
- 0.07392 1 2 cbr 210 ------- 6 1.0 2.0 176 176
+ 0.07416 1 2 cbr 210 ------- 6 1.0 2.0 309 309
+ 0.0744 1 2 cbr 210 ------- 6 1.0 2.0 310 310
d 0.0744 1 2 cbr 210 ------- 6 1.0 2.0 310 310
+ 0.07464 1 2 cbr 210 ------- 6 1.0 2.0 311 311
d 0.07464 1 2 cbr 210 ------- 6 1.0 2.0 311 311
+ 0.07488 1 2 cbr 210 ------- 6 1.0 2.0 312 312
d 0.07488 1 2 cbr 210 ------- 6 1.0 2.0 312 312