+ 0 1 2 cbr 210 ------- 6 1.0 2.0 0 0
- 0 1 2 cbr 210 ------- 6 1.0 2.0 0 0
+ 0.00042 1 2 cbr 210 ------- 6 1.0 2.0 1 1
- 0.00042 1 2 cbr 210 ------- 6 1.0 2.0 1 1
+ 0.00084 1 2 cbr 210 ------- 6 1.0 2.0 2 2
- 0.00084 1 2 cbr 210 ------- 6 1.0 2.0 2 2
+ 0.00126 1 2 cbr 210 ------- 6 1.0 2.0 3 3
- 0.00126 1 2 cbr 210 ------- 6 1.0 2.0 3 3
+ 0.00168 1 2 cbr 210 ------- 6 1.0 2.0 4 4
- 0.00168 1 2 cbr 210 ------- 6 1.0 2.0 4 4
+ 0.0021 1 2 cbr 210 ------- 6 1.0 2.0 5 5
- 0.0021 1 2 cbr 210 ------- 6 1.0 2.0 5 5
+ 0.00252 1 2 cbr 210 ------- 6 1.0 2.0 6 6
- 0.00252 1 2 cbr 210 ------- 6 1.0 2.0 6 6
+ 0.00294 1 2 cbr 210 ------- 6 1.0 2.0 7 7
- 0.00294 1 2 cbr 210 ------- 6 1.0 2.0 7 7
+ 0.00336 1 2 cbr 210 ------- 6 1.0 2.0 8 8
- 0.00336 1 2 cbr 210 ------- 6 1.0 2.0 8 8
+ 0.00378 1 2 cbr 210 ------- 6 1.0 2.0 9 9
- 0.00378 1 2 cbr 210 ------- 6 1.0 2.0 9 9
+ 0.0042 1 2 cbr 210 ------- 6 1.0 2.0 10 10
- 0.0042 1 2 cbr 210 ------- 6 1.0 2.0 10 10
+ 0.00462 1 2 cbr 210 ------- 6 1.0 2.0 11 11
- 0.00462 1 2 cbr 210 ------- 6 1.0 2.0 11 11
+ 0.00504 1 2 cbr 210 ------- 6 1.0 2.0 12 12
- 0.00504 1 2 cbr 210 ------- 6 1.0 2.0 12 12
+ 0.00546 1 2 cbr 210 ------- 6 1.0 2.0 13 13
- 0.00546 1 2 cbr 210 ------- 6 1.0 2.0 13 13
+ 0.00588 1 2 cbr 210 ------- 6 1.0 2.0 14 14
- 0.00588 1 2 cbr 210 ------- 6 1.0 2.0 14 14
+ 0.0063 1 2 cbr 210 ------- 6 1.0 2.0 15 15
- 0.0063 1 2 cbr 210 ------- 6 1.0 2.0 15 15
+ 0.00672 1 2 cbr 210 ------- 6 1.0 2.0 16 16
- 0.00672 1 2 cbr 210 ------- 6 1.0 2.0 16 16
+ 0.00714 1 2 cbr 210 ------- 6 1.0 2.0 17 17
- 0.00714 1 2 cbr 210 ------- 6 1.0 2.0 17 17
+ 0.00756 1 2 cbr 210 ------- 6 1.0 2.0 18 18
- 0.00756 1 2 cbr 210 ------- 6 1.0 2.0 18 18
+ 0.00798 1 2 cbr 210 ------- 6 1.0 2.0 19 19
- 0.00798 1 2 cbr 210 ------- 6 1.0 2.0 19 19
+ 0.0084 1 2 cbr 210 ------- 6 1.0 2.0 20 20
- 0.0084 1 2 cbr 210 ------- 6 1.0 2.0 20 20
+ 0.00882 1 2 cbr 210 ------- 6 1.0 2.0 21 21
- 0.00882 1 2 cbr 210 ------- 6 1.0 2.0 21 21
+ 0.00924 1 2 cbr 210 ------- 6 1.0 2.0 22 22
- 0.00924 1 2 cbr 210 ------- 6 1.0 2.0 22 22
+ 0.00966 1 2 cbr 210 ------- 6 1.0 2.0 23 23
- 0.00966 1 2 cbr 210 ------- 6 1.0 2.0 23 23
+ 0.01008 1 2 cbr 210 ------- 6 1.0 2.0 24 24
- 0.01008 1 2 cbr 210 ------- 6 1.0 2.0 24 24
+ 0.0105 1 2 cbr 210 ------- 6 1.0 2.0 25 25
- 0.0105 1 2 cbr 210 ------- 6 1.0 2.0 25 25
+ 0.01092 1 2 cbr 210 ------- 6 1.0 2.0 26 26
- 0.01092 1 2 cbr 210 ------- 6 1.0 2.0 26 26
+ 0.01134 1 2 cbr 210 ------- 6 1.0 2.0 27 27
- 0.01134 1 2 cbr 210 ------- 6 1.0 2.0 27 27
+ 0.01176 1 2 cbr 210 ------- 6 1.0 2.0 28 28
- 0.01176 1 2 cbr 210 ------- 6 1.0 2.0 28 28
+ 0.01218 1 2 cbr 210 ------- 6 1.0 2.0 29 29
- 0.01218 1 2 cbr 210 ------- 6 1.0 2.0 29 29
+ 0.0126 1 2 cbr 210 ------- 6 1.0 2.0 30 30
- 0.0126 1 2 cbr 210 ------- 6 1.0 2.0 30 30
+ 0.01302 1 2 cbr 210 ------- 6 1.0 2.0 31 31
- 0.01302 1 2 cbr 210 ------- 6 1.0 2.0 31 31
+ 0.01344 1 2 cbr 210 ------- 6 1.0 2.0 32 32
- 0.01344 1 2 cbr 210 ------- 6 1.0 2.0 32 32
+ 0.01386 1 2 cbr 210 ------- 6 1.0 2.0 33 33
- 0.01386 1 2 cbr 210 ------- 6 1.0 2.0 33 33
+ 0.01428 1 2 cbr 210 ------- 6 1.0 2.0 34 34
- 0.01428 1 2 cbr 210 ------- 6 1.0 2.0 34 34
+ 0.0147 1 2 cbr 210 ------- 6 1.0 2.0 35 35
- 0.0147 1 2 cbr 210 ------- 6 1.0 2.0 35 35
+ 0.01512 1 2 cbr 210 ------- 6 1.0 2.0 36 36
- 0.01512 1 2 cbr 210 ------- 6 1.0 2.0 36 36
+ 0.01554 1 2 cbr 210 ------- 6 1.0 2.0 37 37
- 0.01554 1 2 cbr 210 ------- 6 1.0 2.0 37 37
+ 0.01596 1 2 cbr 210 ------- 6 1.0 2.0 38 38
- 0.01596 1 2 cbr 210 ------- 6 1.0 2.0 38 38
+ 0.01638 1 2 cbr 210 ------- 6 1.0 2.0 39 39
- 0.01638 1 2 cbr 210 ------- 6 1.0 2.0 39 39
+ 0.0168 1 2 cbr 210 ------- 6 1.0 2.0 40 40
- 0.0168 1 2 cbr 210 ------- 6 1.0 2.0 40 40
+ 0.01722 1 2 cbr 210 ------- 6 1.0 2.0 41 41
- 0.01722 1 2 cbr 210 ------- 6 1.0 2.0 41 41
+ 0.01764 1 2 cbr 210 ------- 6 1.0 2.0 42 42
- 0.01764 1 2 cbr 210 ------- 6 1.0 2.0 42 42
+ 0.01806 1 2 cbr 210 ------- 6 1.0 2.0 43 43
- 0.01806 1 2 cbr 210 ------- 6 1.0 2.0 43 43
+ 0.01848 1 2 cbr 210 ------- 6 1.0 2.0 44 44
- 0.01848 1 2 cbr 210 ------- 6 1.0 2.0 44 44
+ 0.0189 1 2 cbr 210 ------- 6 1.0 2.0 45 45
- 0.0189 1 2 cbr 210 ------- 6 1.0 2.0 45 45
+ 0.01932 1 2 cbr 210 ------- 6 1.0 2.0 46 46
- 0.01932 1 2 cbr 210 ------- 6 1.0 2.0 46 46
+ 0.01974 1 2 cbr 210 ------- 6 1.0 2.0 47 47
- 0.01974 1 2 cbr 210 ------- 6 1.0 2.0 47 47
+ 0.02016 1 2 cbr 210 ------- 6 1.0 2.0 48 48
- 0.02016 1 2 cbr 210 ------- 6 1.0 2.0 48 48
r 0.020168 1 2 cbr 210 ------- 6 1.0 2.0 0 0
+ 0.02058 1 2 cbr 210 ------- 6 1.0 2.0 49 49
- 0.02058 1 2 cbr 210 ------- 6 1.0 2.0 49 49
r 0.020588 1 2 cbr 210 ------- 6 1.0 2.0 1 1
+ 0.021 1 2 cbr 210 ------- 6 1.0 2.0 50 50
- 0.021 1 2 cbr 210 ------- 6 1.0 2.0 50 50
r 0.021008 1 2 cbr 210 ------- 6 1.0 2.0 2 2
+ 0.02142 1 2 cbr 210 ------- 6 1.0 2.0 51 51
- 0.02142 1 2 cbr 210 ------- 6 1.0 2.0 51 51
r 0.021428 1 2 cbr 210 ------- 6 1.0 2.0 3 3
+ 0.02184 1 2 cbr 210 ------- 6 1.0 2.0 52 52
- 0.02184 1 2 cbr 210 ------- 6 1.0 2.0 52 52
r 0.021848 1 2 cbr 210 ------- 6 1.0 2.0 4 4
+ 0.02226 1 2 cbr 210 ------- 6 1.0 2.0 53 53
- 0.02226 1 2 cbr 210 ------- 6 1.0 2.0 53 53
r 0.022268 1 2 cbr 210 ------- 6 1.0 2.0 5 5
+ 0.02268 1 2 cbr 210 ------- 6 1.0 2.0 54 54
- 0.02268 1 2 cbr 210 ------- 6 1.0 2.0 54 54
r 0.022688 1 2 cbr 210 ------- 6 1.0 2.0 6 6
+ 0.0231 1 2 cbr 210 ------- 6 1.0 2.0 55 55
- 0.0231 1 2 cbr 210 ------- 6 1.0 2.0 55 55
r 0.023108 1 2 cbr 210 ------- 6 1.0 2.0 7 7
+ 0.02352 1 2 cbr 210 ------- 6 1.0 2.0 56 56
- 0.02352 1 2 cbr 210 ------- 6 1.0 2.0 56 56
r 0.023528 1 2 cbr 210 ------- 6 1.0 2.0 8 8
+ 0.02394 1 2 cbr 210 ------- 6 1.0 2.0 57 57
- 0.02394 1 2 cbr 210 ------- 6 1.0 2.0 57 57
r 0.023948 1 2 cbr 210 ------- 6 1.0 2.0 9 9
+ 0.02436 1 2 cbr 210 ------- 6 1.0 2.0 58 58
- 0.02436 1 2 cbr 210 ------- 6 1.0 2.0 58 58
r 0.024368 1 2 cbr 210 ------- 6 1.0 2.0 10 10
+ 0.02478 1 2 cbr 210 ------- 6 1.0 2.0 59 59
- 0.02478 1 2 cbr 210 ------- 6 1.0 2.0 59 59
r 0.024788 1 2 cbr 210 ------- 6 1.0 2.0 11 11
+ 0.0252 1 2 cbr 210 ------- 6 1.0 2.0 60 60
- 0.0252 1 2 cbr 210 ------- 6 1.0 2.0 60 60
r 0.025208 1 2 cbr 210 ------- 6 1.0 2.0 12 12
+ 0.02562 1 2 cbr 210 ------- 6 1.0 2.0 61 61
- 0.02562 1 2 cbr 210 ------- 6 1.0 2.0 61 61
r 0.025628 1 2 cbr 210 ------- 6 1.0 2.0 13 13
+ 0.02604 1 2 cbr 210 ------- 6 1.0 2.0 62 62
- 0.02604 1 2 cbr 210 ------- 6 1.0 2.0 62 62
r 0.026048 1 2 cbr 210 ------- 6 1.0 2.0 14 14
+ 0.02646 1 2 cbr 210 ------- 6 1.0 2.0 63 63
- 0.02646 1 2 cbr 210 ------- 6 1.0 2.0 63 63
r 0.026468 1 2 cbr 210 ------- 6 1.0 2.0 15 15
+ 0.02688 1 2 cbr 210 ------- 6 1.0 2.0 64 64
- 0.02688 1 2 cbr 210 ------- 6 1.0 2.0 64 64
r 0.026888 1 2 cbr 210 ------- 6 1.0 2.0 16 16
+ 0.0273 1 2 cbr 210 ------- 6 1.0 2.0 65 65
- 0.0273 1 2 cbr 210 ------- 6 1.0 2.0 65 65
r 0.027308 1 2 cbr 210 ------- 6 1.0 2.0 17 17
+ 0.02772 1 2 cbr 210 ------- 6 1.0 2.0 66 66
- 0.02772 1 2 cbr 210 ------- 6 1.0 2.0 66 66
r 0.027728 1 2 cbr 210 ------- 6 1.0 2.0 18 18
+ 0.02814 1 2 cbr 210 ------- 6 1.0 2.0 67 67
- 0.02814 1 2 cbr 210 ------- 6 1.0 2.0 67 67
r 0.028148 1 2 cbr 210 ------- 6 1.0 2.0 19 19
+ 0.02856 1 2 cbr 210 ------- 6 1.0 2.0 68 68
- 0.02856 1 2 cbr 210 ------- 6 1.0 2.0 68 68
r 0.028568 1 2 cbr 210 ------- 6 1.0 2.0 20 20
+ 0.02898 1 2 cbr 210 ------- 6 1.0 2.0 69 69
- 0.02898 1 2 cbr 210 ------- 6 1.0 2.0 69 69
r 0.028988 1 2 cbr 210 ------- 6 1.0 2.0 21 21
+ 0.0294 1 2 cbr 210 ------- 6 1.0 2.0 70 70
- 0.0294 1 2 cbr 210 ------- 6 1.0 2.0 70 70
r 0.029408 1 2 cbr 210 ------- 6 1.0 2.0 22 22
+ 0.02982 1 2 cbr 210 ------- 6 1.0 2.0 71 71
- 0.02982 1 2 cbr 210 ------- 6 1.0 2.0 71 71
r 0.029828 1 2 cbr 210 ------- 6 1.0 2.0 23 23
+ 0.03024 1 2 cbr 210 ------- 6 1.0 2.0 72 72
- 0.03024 1 2 cbr 210 ------- 6 1.0 2.0 72 72
r 0.030248 1 2 cbr 210 ------- 6 1.0 2.0 24 24
+ 0.03066 1 2 cbr 210 ------- 6 1.0 2.0 73 73
- 0.03066 1 2 cbr 210 ------- 6 1.0 2.0 73 73
r 0.030668 1 2 cbr 210 ------- 6 1.0 2.0 25 25
+ 0.03108 1 2 cbr 210 ------- 6 1.0 2.0 74 74
- 0.03108 1 2 cbr 210 ------- 6 1.0 2.0 74 74
r 0.031088 1 2 cbr 210 ------- 6 1.0 2.0 26 26
+ 0.0315 1 2 cbr 210 ------- 6 1.0 2.0 75 75
- 0.0315 1 2 cbr 210 ------- 6 1.0 2.0 75 75
r 0.031508 1 2 cbr 210 ------- 6 1.0 2.0 27 27
+ 0.03192 1 2 cbr 210 ------- 6 1.0 2.0 76 76
- 0.03192 1 2 cbr 210 ------- 6 1.0 2.0 76 76
r 0.031928 1 2 cbr 210 ------- 6 1.0 2.0 28 28
+ 0.03234 1 2 cbr 210 ------- 6 1.0 2.0 77 77
- 0.03234 1 2 cbr 210 ------- 6 1.0 2.0 77 77
r 0.032348 1 2 cbr 210 ------- 6 1.0 2.0 29 29
+ 0.03276 1 2 cbr 210 ------- 6 1.0 2.0 78 78
- 0.03276 1 2 cbr 210 ------- 6 1.0 2.0 78 78
r 0.032768 1 2 cbr 210 ------- 6 1.0 2.0 30 30
+ 0.03318 1 2 cbr 210 ------- 6 1.0 2.0 79 79
- 0.03318 1 2 cbr 210 ------- 6 1.0 2.0 79 79
r 0.033188 1 2 cbr 210 ------- 6 1.0 2.0 31 31
+ 0.0336 1 2 cbr 210 ------- 6 1.0 2.0 80 80
- 0.0336 1 2 cbr 210 ------- 6 1.0 2.0 80 80
r 0.033608 1 2 cbr 210 ------- 6 1.0 2.0 32 32
+ 0.03402 1 2 cbr 210 ------- 6 1.0 2.0 81 81
- 0.03402 1 2 cbr 210 ------- 6 1.0 2.0 81 81
r 0.034028 1 2 cbr 210 ------- 6 1.0 2.0 33 33
+ 0.03444 1 2 cbr 210 ------- 6 1.0 2.0 82 82
- 0.03444 1 2 cbr 210 ------- 6 1.0 2.0 82 82
r 0.034448 1 2 cbr 210 ------- 6 1.0 2.0 34 34
+ 0.03486 1 2 cbr 210 ------- 6 1.0 2.0 83 83
- 0.03486 1 2 cbr 210 ------- 6 1.0 2.0 83 83
r 0.034868 1 2 cbr 210 ------- 6 1.0 2.0 35 35
+ 0.03528 1 2 cbr 210 ------- 6 1.0 2.0 84 84
- 0.03528 1 2 cbr 210 ------- 6 1.0 2.0 84 84
r 0.035288 1 2 cbr 210 ------- 6 1.0 2.0 36 36
+ 0.0357 1 2 cbr 210 ------- 6 1.0 2.0 85 85
- 0.0357 1 2 cbr 210 ------- 6 1.0 2.0 85 85
r 0.035708 1 2 cbr 210 ------- 6 1.0 2.0 37 37
+ 0.03612 1 2 cbr 210 ------- 6 1.0 2.0 86 86
- 0.03612 1 2 cbr 210 ------- 6 1.0 2.0 86 86
r 0.036128 1 2 cbr 210 ------- 6 1.0 2.0 38 38
+ 0.03654 1 2 cbr 210 ------- 6 1.0 2.0 87 87
- 0.03654 1 2 cbr 210 ------- 6 1.0 2.0 87 87
r 0.036548 1 2 cbr 210 ------- 6 1.0 2.0 39 39
+ 0.03696 1 2 cbr 210 ------- 6 1.0 2.0 88 88
- 0.03696 1 2 cbr 210 ------- 6 1.0 2.0 88 88
r 0.036968 1 2 cbr 210 ------- 6 1.0 2.0 40 40
+ 0.03738 1 2 cbr 210 ------- 6 1.0 2.0 89 89
- 0.03738 1 2 cbr 210 ------- 6 1.0 2.0 89 89
r 0.037388 1 2 cbr 210 ------- 6 1.0 2.0 41 41
+ 0.0378 1 2 cbr 210 ------- 6 1.0 2.0 90 90
- 0.0378 1 2 cbr 210 ------- 6 1.0 2.0 90 90
r 0.037808 1 2 cbr 210 ------- 6 1.0 2.0 42 42
+ 0.03822 1 2 cbr 210 ------- 6 1.0 2.0 91 91
- 0.03822 1 2 cbr 210 ------- 6 1.0 2.0 91 91
r 0.038228 1 2 cbr 210 ------- 6 1.0 2.0 43 43
+ 0.03864 1 2 cbr 210 ------- 6 1.0 2.0 92 92
- 0.03864 1 2 cbr 210 ------- 6 1.0 2.0 92 92
r 0.038648 1 2 cbr 210 ------- 6 1.0 2.0 44 44
+ 0.03906 1 2 cbr 210 ------- 6 1.0 2.0 93 93
- 0.03906 1 2 cbr 210 ------- 6 1.0 2.0 93 93
r 0.039068 1 2 cbr 210 ------- 6 1.0 2.0 45 45
+ 0.03948 1 2 cbr 210 ------- 6 1.0 2.0 94 94
- 0.03948 1 2 cbr 210 ------- 6 1.0 2.0 94 94
r 0.039488 1 2 cbr 210 ------- 6 1.0 2.0 46 46
+ 0.0399 1 2 cbr 210 ------- 6 1.0 2.0 95 95
- 0.0399 1 2 cbr 210 ------- 6 1.0 2.0 95 95
r 0.039908 1 2 cbr 210 ------- 6 1.0 2.0 47 47
+ 0.04032 1 2 cbr 210 ------- 6 1.0 2.0 96 96
- 0.04032 1 2 cbr 210 ------- 6 1.0 2.0 96 96
r 0.040328 1 2 cbr 210 ------- 6 1.0 2.0 48 48
+ 0.04074 1 2 cbr 210 ------- 6 1.0 2.0 97 97
- 0.04074 1 2 cbr 210 ------- 6 1.0 2.0 97 97
r 0.040748 1 2 cbr 210 ------- 6 1.0 2.0 49 49
+ 0.04116 1 2 cbr 210 ------- 6 1.0 2.0 98 98
- 0.04116 1 2 cbr 210 ------- 6 1.0 2.0 98 98
r 0.041168 1 2 cbr 210 ------- 6 1.0 2.0 50 50
+ 0.04158 1 2 cbr 210 ------- 6 1.0 2.0 99 99
- 0.04158 1 2 cbr 210 ------- 6 1.0 2.0 99 99
r 0.041588 1 2 cbr 210 ------- 6 1.0 2.0 51 51
+ 0.042 1 2 cbr 210 ------- 6 1.0 2.0 100 100
- 0.042 1 2 cbr 210 ------- 6 1.0 2.0 100 100
r 0.042008 1 2 cbr 210 ------- 6 1.0 2.0 52 52
+ 0.04242 1 2 cbr 210 ------- 6 1.0 2.0 101 101
- 0.04242 1 2 cbr 210 ------- 6 1.0 2.0 101 101
r 0.042428 1 2 cbr 210 ------- 6 1.0 2.0 53 53
+ 0.04284 1 2 cbr 210 ------- 6 1.0 2.0 102 102
- 0.04284 1 2 cbr 210 ------- 6 1.0 2.0 102 102
r 0.042848 1 2 cbr 210 ------- 6 1.0 2.0 54 54
+ 0.04326 1 2 cbr 210 ------- 6 1.0 2.0 103 103
- 0.04326 1 2 cbr 210 ------- 6 1.0 2.0 103 103
r 0.043268 1 2 cbr 210 ------- 6 1.0 2.0 55 55
+ 0.04368 1 2 cbr 210 ------- 6 1.0 2.0 104 104
- 0.04368 1 2 cbr 210 ------- 6 1.0 2.0 104 104
r 0.043688 1 2 cbr 210 ------- 6 1.0 2.0 56 56
+ 0.0441 1 2 cbr 210 ------- 6 1.0 2.0 105 105
- 0.0441 1 2 cbr 210 ------- 6 1.0 2.0 105 105
r 0.044108 1 2 cbr 210 ------- 6 1.0 2.0 57 57
+ 0.04452 1 2 cbr 210 ------- 6 1.0 2.0 106 106
- 0.04452 1 2 cbr 210 ------- 6 1.0 2.0 106 106
r 0.044528 1 2 cbr 210 ------- 6 1.0 2.0 58 58
+ 0.04494 1 2 cbr 210 ------- 6 1.0 2.0 107 107
- 0.04494 1 2 cbr 210 ------- 6 1.0 2.0 107 107
r 0.044948 1 2 cbr 210 ------- 6 1.0 2.0 59 59
+ 0.04536 1 2 cbr 210 ------- 6 1.0 2.0 108 108
- 0.04536 1 2 cbr 210 ------- 6 1.0 2.0 108 108
r 0.045368 1 2 cbr 210 ------- 6 1.0 2.0 60 60
+ 0.04578 1 2 cbr 210 ------- 6 1.0 2.0 109 109
- 0.04578 1 2 cbr 210 ------- 6 1.0 2.0 109 109
r 0.045788 1 2 cbr 210 ------- 6 1.0 2.0 61 61
+ 0.0462 1 2 cbr 210 ------- 6 1.0 2.0 110 110
- 0.0462 1 2 cbr 210 ------- 6 1.0 2.0 110 110
r 0.046208 1 2 cbr 210 ------- 6 1.0 2.0 62 62
+ 0.04662 1 2 cbr 210 ------- 6 1.0 2.0 111 111
- 0.04662 1 2 cbr 210 ------- 6 1.0 2.0 111 111
r 0.046628 1 2 cbr 210 ------- 6 1.0 2.0 63 63
+ 0.04704 1 2 cbr 210 ------- 6 1.0 2.0 112 112
- 0.04704 1 2 cbr 210 ------- 6 1.0 2.0 112 112
r 0.047048 1 2 cbr 210 ------- 6 1.0 2.0 64 64
+ 0.04746 1 2 cbr 210 ------- 6 1.0 2.0 113 113
- 0.04746 1 2 cbr 210 ------- 6 1.0 2.0 113 113
r 0.047468 1 2 cbr 210 ------- 6 1.0 2.0 65 65
+ 0.04788 1 2 cbr 210 ------- 6 1.0 2.0 114 114
- 0.04788 1 2 cbr 210 ------- 6 1.0 2.0 114 114
r 0.047888 1 2 cbr 210 ------- 6 1.0 2.0 66 66
+ 0.0483 1 2 cbr 210 ------- 6 1.0 2.0 115 115
- 0.0483 1 2 cbr 210 ------- 6 1.0 2.0 115 115
r 0.048308 1 2 cbr 210 ------- 6 1.0 2.0 67 67
+ 0.04872 1 2 cbr 210 ------- 6 1.0 2.0 116 116
- 0.04872 1 2 cbr 210 ------- 6 1.0 2.0 116 116
r 0.048728 1 2 cbr 210 ------- 6 1.0 2.0 68 68
+ 0.04914 1 2 cbr 210 ------- 6 1.0 2.0 117 117
- 0.04914 1 2 cbr 210 ------- 6 1.0 2.0 117 117
r 0.049148 1 2 cbr 210 ------- 6 1.0 2.0 69 69
+ 0.04956 1 2 cbr 210 ------- 6 1.0 2.0 118 118
- 0.04956 1 2 cbr 210 ------- 6 1.0 2.0 118 118
r 0.049568 1 2 cbr 210 ------- 6 1.0 2.0 70 70
+ 0.04998 1 2 cbr 210 ------- 6 1.0 2.0 119 119
- 0.04998 1 2 cbr 210 ------- 6 1.0 2.0 119 119
r 0.049988 1 2 cbr 210 ------- 6 1.0 2.0 71 71
+ 0.0504 1 2 cbr 210 ------- 6 1.0 2.0 120 120
- 0.0504 1 2 cbr 210 ------- 6 1.0 2.0 120 120
r 0.050408 1 2 cbr 210 ------- 6 1.0 2.0 72 72
+ 0.05082 1 2 cbr 210 ------- 6 1.0 2.0 121 121
- 0.05082 1 2 cbr 210 ------- 6 1.0 2.0 121 121
r 0.050828 1 2 cbr 210 ------- 6 1.0 2.0 73 73
+ 0.05124 1 2 cbr 210 ------- 6 1.0 2.0 122 122
- 0.05124 1 2 cbr 210 ------- 6 1.0 2.0 122 122
r 0.051248 1 2 cbr 210 ------- 6 1.0 2.0 74 74
+ 0.05166 1 2 cbr 210 ------- 6 1.0 2.0 123 123
- 0.05166 1 2 cbr 210 ------- 6 1.0 2.0 123 123
r 0.051668 1 2 cbr 210 ------- 6 1.0 2.0 75 75
+ 0.05208 1 2 cbr 210 ------- 6 1.0 2.0 124 124
- 0.05208 1 2 cbr 210 ------- 6 1.0 2.0 124 124
r 0.052088 1 2 cbr 210 ------- 6 1.0 2.0 76 76
+ 0.0525 1 2 cbr 210 ------- 6 1.0 2.0 125 125
- 0.0525 1 2 cbr 210 ------- 6 1.0 2.0 125 125
r 0.052508 1 2 cbr 210 ------- 6 1.0 2.0 77 77
+ 0.05292 1 2 cbr 210 ------- 6 1.0 2.0 126 126
- 0.05292 1 2 cbr 210 ------- 6 1.0 2.0 126 126
r 0.052928 1 2 cbr 210 ------- 6 1.0 2.0 78 78
+ 0.05334 1 2 cbr 210 ------- 6 1.0 2.0 127 127
- 0.05334 1 2 cbr 210 ------- 6 1.0 2.0 127 127
r 0.053348 1 2 cbr 210 ------- 6 1.0 2.0 79 79
+ 0.05376 1 2 cbr 210 ------- 6 1.0 2.0 128 128
- 0.05376 1 2 cbr 210 ------- 6 1.0 2.0 128 128
r 0.053768 1 2 cbr 210 ------- 6 1.0 2.0 80 80
+ 0.05418 1 2 cbr 210 ------- 6 1.0 2.0 129 129
- 0.05418 1 2 cbr 210 ------- 6 1.0 2.0 129 129
r 0.054188 1 2 cbr 210 ------- 6 1.0 2.0 81 81
+ 0.0546 1 2 cbr 210 ------- 6 1.0 2.0 130 130
- 0.0546 1 2 cbr 210 ------- 6 1.0 2.0 130 130
r 0.054608 1 2 cbr 210 ------- 6 1.0 2.0 82 82
+ 0.05502 1 2 cbr 210 ------- 6 1.0 2.0 131 131
- 0.05502 1 2 cbr 210 ------- 6 1.0 2.0 131 131
r 0.055028 1 2 cbr 210 ------- 6 1.0 2.0 83 83
+ 0.05544 1 2 cbr 210 ------- 6 1.0 2.0 132 132
- 0.05544 1 2 cbr 210 ------- 6 1.0 2.0 132 132
r 0.055448 1 2 cbr 210 ------- 6 1.0 2.0 84 84
+ 0.05586 1 2 cbr 210 ------- 6 1.0 2.0 133 133
- 0.05586 1 2 cbr 210 ------- 6 1.0 2.0 133 133
r 0.055868 1 2 cbr 210 ------- 6 1.0 2.0 85 85
+ 0.05628 1 2 cbr 210 ------- 6 1.0 2.0 134 134
- 0.05628 1 2 cbr 210 ------- 6 1.0 2.0 134 134
r 0.056288 1 2 cbr 210 ------- 6 1.0 2.0 86 86
+ 0.0567 1 2 cbr 210 ------- 6 1.0 2.0 135 135
- 0.0567 1 2 cbr 210 ------- 6 1.0 2.0 135 135
r 0.056708 1 2 cbr 210 ------- 6 1.0 2.0 87 87
+ 0.05712 1 2 cbr 210 ------- 6 1.0 2.0 136 136
- 0.05712 1 2 cbr 210 ------- 6 1.0 2.0 136 136
r 0.057128 1 2 cbr 210 ------- 6 1.0 2.0 88 88
+ 0.05754 1 2 cbr 210 ------- 6 1.0 2.0 137 137
- 0.05754 1 2 cbr 210 ------- 6 1.0 2.0 137 137
r 0.057548 1 2 cbr 210 ------- 6 1.0 2.0 89 89
+ 0.05796 1 2 cbr 210 ------- 6 1.0 2.0 138 138
- 0.05796 1 2 cbr 210 ------- 6 1.0 2.0 138 138
r 0.057968 1 2 cbr 210 ------- 6 1.0 2.0 90 90
+ 0.05838 1 2 cbr 210 ------- 6 1.0 2.0 139 139
- 0.05838 1 2 cbr 210 ------- 6 1.0 2.0 139 139
r 0.058388 1 2 cbr 210 ------- 6 1.0 2.0 91 91
+ 0.0588 1 2 cbr 210 ------- 6 1.0 2.0 140 140
- 0.0588 1 2 cbr 210 ------- 6 1.0 2.0 140 140
r 0.058808 1 2 cbr 210 ------- 6 1.0 2.0 92 92
+ 0.05922 1 2 cbr 210 ------- 6 1.0 2.0 141 141
- 0.05922 1 2 cbr 210 ------- 6 1.0 2.0 141 141
r 0.059228 1 2 cbr 210 ------- 6 1.0 2.0 93 93
+ 0.05964 1 2 cbr 210 ------- 6 1.0 2.0 142 142
- 0.05964 1 2 cbr 210 ------- 6 1.0 2.0 142 142
r 0.059648 1 2 cbr 210 ------- 6 1.0 2.0 94 94
+ 0.06006 1 2 cbr 210 ------- 6 1.0 2.0 143 143
- 0.06006 1 2 cbr 210 ------- 6 1.0 2.0 143 143
r 0.060068 1 2 cbr 210 ------- 6 1.0 2.0 95 95
+ 0.06048 1 2 cbr 210 ------- 6 1.0 2.0 144 144
- 0.06048 1 2 cbr 210 ------- 6 1.0 2.0 144 144
r 0.060488 1 2 cbr 210 ------- 6 1.0 2.0 96 96
+ 0.0609 1 2 cbr 210 ------- 6 1.0 2.0 145 145
- 0.0609 1 2 cbr 210 ------- 6 1.0 2.0 145 145
r 0.060908 1 2 cbr 210 ------- 6 1.0 2.0 97 97
+ 0.06132 1 2 cbr 210 ------- 6 1.0 2.0 146 146
- 0.06132 1 2 cbr 210 ------- 6 1.0 2.0 146 146
r 0.061328 1 2 cbr 210 ------- 6 1.0 2.0 98 98
+ 0.06174 1 2 cbr 210 ------- 6 1.0 2.0 147 147
- 0.06174 1 2 cbr 210 ------- 6 1.0 2.0 147 147
r 0.061748 1 2 cbr 210 ------- 6 1.0 2.0 99 99
+ 0.06216 1 2 cbr 210 ------- 6 1.0 2.0 148 148
- 0.06216 1 2 cbr 210 ------- 6 1.0 2.0 148 148
r 0.062168 1 2 cbr 210 ------- 6 1.0 2.0 100 100
+ 0.06258 1 2 cbr 210 ------- 6 1.0 2.0 149 149
- 0.06258 1 2 cbr 210 ------- 6 1.0 2.0 149 149
r 0.062588 1 2 cbr 210 ------- 6 1.0 2.0 101 101
+ 0.063 1 2 cbr 210 ------- 6 1.0 2.0 150 150
- 0.063 1 2 cbr 210 ------- 6 1.0 2.0 150 150
r 0.063008 1 2 cbr 210 ------- 6 1.0 2.0 102 102
+ 0.06342 1 2 cbr 210 ------- 6 1.0 2.0 151 151
- 0.06342 1 2 cbr 210 ------- 6 1.0 2.0 151 151
r 0.063428 1 2 cbr 210 ------- 6 1.0 2.0 103 103
+ 0.06384 1 2 cbr 210 ------- 6 1.0 2.0 152 152
- 0.06384 1 2 cbr 210 ------- 6 1.0 2.0 152 152
r 0.063848 1 2 cbr 210 ------- 6 1.0 2.0 104 104
+ 0.06426 1 2 cbr 210 ------- 6 1.0 2.0 153 153
- 0.06426 1 2 cbr 210 ------- 6 1.0 2.0 153 153
r 0.064268 1 2 cbr 210 ------- 6 1.0 2.0 105 105
+ 0.06468 1 2 cbr 210 ------- 6 1.0 2.0 154 154
- 0.06468 1 2 cbr 210 ------- 6 1.0 2.0 154 154
r 0.064688 1 2 cbr 210 ------- 6 1.0 2.0 106 106
+ 0.0651 1 2 cbr 210 ------- 6 1.0 2.0 155 155
- 0.0651 1 2 cbr 210 ------- 6 1.0 2.0 155 155
r 0.065108 1 2 cbr 210 ------- 6 1.0 2.0 107 107
+ 0.06552 1 2 cbr 210 ------- 6 1.0 2.0 156 156
- 0.06552 1 2 cbr 210 ------- 6 1.0 2.0 156 156
r 0.065528 1 2 cbr 210 ------- 6 1.0 2.0 108 108
+ 0.06594 1 2 cbr 210 ------- 6 1.0 2.0 157 157
- 0.06594 1 2 cbr 210 ------- 6 1.0 2.0 157 157
r 0.065948 1 2 cbr 210 ------- 6 1.0 2.0 109 109
+ 0.06636 1 2 cbr 210 ------- 6 1.0 2.0 158 158
- 0.06636 1 2 cbr 210 ------- 6 1.0 2.0 158 158
r 0.066368 1 2 cbr 210 ------- 6 1.0 2.0 110 110
+ 0.06678 1 2 cbr 210 ------- 6 1.0 2.0 159 159
- 0.06678 1 2 cbr 210 ------- 6 1.0 2.0 159 159
r 0.066788 1 2 cbr 210 ------- 6 1.0 2.0 111 111
+ 0.0672 1 2 cbr 210 ------- 6 1.0 2.0 160 160
- 0.0672 1 2 cbr 210 ------- 6 1.0 2.0 160 160
r 0.067208 1 2 cbr 210 ------- 6 1.0 2.0 112 112
+ 0.06762 1 2 cbr 210 ------- 6 1.0 2.0 161 161
- 0.06762 1 2 cbr 210 ------- 6 1.0 2.0 161 161
r 0.067628 1 2 cbr 210 ------- 6 1.0 2.0 113 113
+ 0.06804 1 2 cbr 210 ------- 6 1.0 2.0 162 162
- 0.06804 1 2 cbr 210 ------- 6 1.0 2.0 162 162
r 0.068048 1 2 cbr 210 ------- 6 1.0 2.0 114 114
+ 0.06846 1 2 cbr 210 ------- 6 1.0 2.0 163 163
- 0.06846 1 2 cbr 210 ------- 6 1.0 2.0 163 163
r 0.068468 1 2 cbr 210 ------- 6 1.0 2.0 115 115
+ 0.06888 1 2 cbr 210 ------- 6 1.0 2.0 164 164
- 0.06888 1 2 cbr 210 ------- 6 1.0 2.0 164 164
r 0.068888 1 2 cbr 210 ------- 6 1.0 2.0 116 116
+ 0.0693 1 2 cbr 210 ------- 6 1.0 2.0 165 165
- 0.0693 1 2 cbr 210 ------- 6 1.0 2.0 165 165
r 0.069308 1 2 cbr 210 ------- 6 1.0 2.0 117 117
+ 0.06972 1 2 cbr 210 ------- 6 1.0 2.0 166 166
- 0.06972 1 2 cbr 210 ------- 6 1.0 2.0 166 166
r 0.069728 1 2 cbr 210 ------- 6 1.0 2.0 118 118
+ 0.07014 1 2 cbr 210 ------- 6 1.0 2.0 167 167
- 0.07014 1 2 cbr 210 ------- 6 1.0 2.0 167 167
r 0.070148 1 2 cbr 210 ------- 6 1.0 2.0 119 119
+ 0.07056 1 2 cbr 210 ------- 6 1.0 2.0 168 168
- 0.07056 1 2 cbr 210 ------- 6 1.0 2.0 168 168
r 0.070568 1 2 cbr 210 ------- 6 1.0 2.0 120 120
+ 0.07098 1 2 cbr 210 ------- 6 1.0 2.0 169 169
- 0.07098 1 2 cbr 210 ------- 6 1.0 2.0 169 169
r 0.070988 1 2 cbr 210 ------- 6 1.0 2.0 121 121
+ 0.0714 1 2 cbr 210 ------- 6 1.0 2.0 170 170
- 0.0714 1 2 cbr 210 ------- 6 1.0 2.0 170 170
r 0.071408 1 2 cbr 210 ------- 6 1.0 2.0 122 122
+ 0.07182 1 2 cbr 210 ------- 6 1.0 2.0 171 171
- 0.07182 1 2 cbr 210 ------- 6 1.0 2.0 171 171
r 0.071828 1 2 cbr 210 ------- 6 1.0 2.0 123 123
+ 0.07224 1 2 cbr 210 ------- 6 1.0 2.0 172 172
- 0.07224 1 2 cbr 210 ------- 6 1.0 2.0 172 172
r 0.072248 1 2 cbr 210 ------- 6 1.0 2.0 124 124
+ 0.07266 1 2 cbr 210 ------- 6 1.0 2.0 173 173
- 0.07266 1 2 cbr 210 ------- 6 1.0 2.0 173 173
r 0.072668 1 2 cbr 210 ------- 6 1.0 2.0 125 125
+ 0.07308 1 2 cbr 210 ------- 6 1.0 2.0 174 174
- 0.07308 1 2 cbr 210 ------- 6 1.0 2.0 174 174
r 0.073088 1 2 cbr 210 ------- 6 1.0 2.0 126 126
+ 0.0735 1 2 cbr 210 ------- 6 1.0 2.0 175 175
- 0.0735 1 2 cbr 210 ------- 6 1.0 2.0 175 175
r 0.073508 1 2 cbr 210 ------- 6 1.0 2.0 127 127
+ 0.07392 1 2 cbr 210 ------- 6 1.0 2.0 176 176
- 0.07392 1 2 cbr 210 ------- 6 1.0 2.0 176 176
r 0.073928 1 2 cbr 210 ------- 6 1.0 2.0 128 128
+ 0.07434 1 2 cbr 210 ------- 6 1.0 2.0 177 177
- 0.07434 1 2 cbr 210 ------- 6 1.0 2.0 177 177
r 0.074348 1 2 cbr 210 ------- 6 1.0 2.0 129 129
+ 0.07476 1 2 cbr 210 ------- 6 1.0 2.0 178 178
- 0.07476 1 2 cbr 210 ------- 6 1.0 2.0 178 178
r 0.074768 1 2 cbr 210 ------- 6 1.0 2.0 130 130
+ 0.07518 1 2 cbr 210 ------- 6 1.0 2.0 179 179
- 0.07518 1 2 cbr 210 ------- 6 1.0 2.0 179 179
r 0.075188 1 2 cbr 210 ------- 6 1.0 2.0 131 131
+ 0.0756 1 2 cbr 210 ------- 6 1.0 2.0 180 180
- 0.0756 1 2 cbr 210 ------- 6 1.0 2.0 180 180
r 0.075608 1 2 cbr 210 ------- 6 1.0 2.0 132 132
+ 0.07602 1 2 cbr 210 ------- 6 1.0 2.0 181 181
- 0.07602 1 2 cbr 210 ------- 6 1.0 2.0 181 181
r 0.076028 1 2 cbr 210 ------- 6 1.0 2.0 133 133
+ 0.07644 1 2 cbr 210 ------- 6 1.0 2.0 182 182
- 0.07644 1 2 cbr 210 ------- 6 1.0 2.0 182 182
r 0.076448 1 2 cbr 210 ------- 6 1.0 2.0 134 134
+ 0.07686 1 2 cbr 210 ------- 6 1.0 2.0 183 183
- 0.07686 1 2 cbr 210 ------- 6 1.0 2.0 183 183
r 0.076868 1 2 cbr 210 ------- 6 1.0 2.0 135 135
+ 0.07728 1 2 cbr 210 ------- 6 1.0 2.0 184 184
- 0.07728 1 2 cbr 210 ------- 6 1.0 2.0 184 184
r 0.077288 1 2 cbr 210 ------- 6 1.0 2.0 136 136
+ 0.0777 1 2 cbr 210 ------- 6 1.0 2.0 185 185
- 0.0777 1 2 cbr 210 ------- 6 1.0 2.0 185 185
r 0.077708 1 2 cbr 210 ------- 6 1.0 2.0 137 137
+ 0.07812 1 2 cbr 210 ------- 6 1.0 2.0 186 186
- 0.07812 1 2 cbr 210 ------- 6 1.0 2.0 186 186
r 0.078128 1 2 cbr 210 ------- 6 1.0 2.0 138 138
+ 0.07854 1 2 cbr 210 ------- 6 1.0 2.0 187 187
- 0.07854 1 2 cbr 210 ------- 6 1.0 2.0 187 187
r 0.078548 1 2 cbr 210 ------- 6 1.0 2.0 139 139
+ 0.07896 1 2 cbr 210 ------- 6 1.0 2.0 188 188
- 0.07896 1 2 cbr 210 ------- 6 1.0 2.0 188 188
r 0.078968 1 2 cbr 210 ------- 6 1.0 2.0 140 140
+ 0.07938 1 2 cbr 210 ------- 6 1.0 2.0 189 189
- 0.07938 1 2 cbr 210 ------- 6 1.0 2.0 189 189
r 0.079388 1 2 cbr 210 ------- 6 1.0 2.0 141 141
+ 0.0798 1 2 cbr 210 ------- 6 1.0 2.0 190 190
- 0.0798 1 2 cbr 210 ------- 6 1.0 2.0 190 190
r 0.079808 1 2 cbr 210 ------- 6 1.0 2.0 142 142
+ 0.08022 1 2 cbr 210 ------- 6 1.0 2.0 191 191
- 0.08022 1 2 cbr 210 ------- 6 1.0 2.0 191 191
r 0.080228 1 2 cbr 210 ------- 6 1.0 2.0 143 143
+ 0.08064 1 2 cbr 210 ------- 6 1.0 2.0 192 192
- 0.08064 1 2 cbr 210 ------- 6 1.0 2.0 192 192
r 0.080648 1 2 cbr 210 ------- 6 1.0 2.0 144 144
+ 0.08106 1 2 cbr 210 ------- 6 1.0 2.0 193 193
- 0.08106 1 2 cbr 210 ------- 6 1.0 2.0 193 193
r 0.081068 1 2 cbr 210 ------- 6 1.0 2.0 145 145
+ 0.08148 1 2 cbr 210 ------- 6 1.0 2.0 194 194
- 0.08148 1 2 cbr 210 ------- 6 1.0 2.0 194 194
r 0.081488 1 2 cbr 210 ------- 6 1.0 2.0 146 146
+ 0.0819 1 2 cbr 210 ------- 6 1.0 2.0 195 195
- 0.0819 1 2 cbr 210 ------- 6 1.0 2.0 195 195
r 0.081908 1 2 cbr 210 ------- 6 1.0 2.0 147 147
+ 0.08232 1 2 cbr 210 ------- 6 1.0 2.0 196 196
- 0.08232 1 2 cbr 210 ------- 6 1.0 2.0 196 196
r 0.082328 1 2 cbr 210 ------- 6 1.0 2.0 148 148
+ 0.08274 1 2 cbr 210 ------- 6 1.0 2.0 197 197
- 0.08274 1 2 cbr 210 ------- 6 1.0 2.0 197 197
r 0.082748 1 2 cbr 210 ------- 6 1.0 2.0 149 149
+ 0.08316 1 2 cbr 210 ------- 6 1.0 2.0 198 198
- 0.08316 1 2 cbr 210 ------- 6 1.0 2.0 198 198
r 0.083168 1 2 cbr 210 ------- 6 1.0 2.0 150 150
+ 0.08358 1 2 cbr 210 ------- 6 1.0 2.0 199 199
- 0.08358 1 2 cbr 210 ------- 6 1.0 2.0 199 199
r 0.083588 1 2 cbr 210 ------- 6 1.0 2.0 151 151
+ 0.084 1 2 cbr 210 ------- 6 1.0 2.0 200 200
- 0.084 1 2 cbr 210 ------- 6 1.0 2.0 200 200
r 0.084008 1 2 cbr 210 ------- 6 1.0 2.0 152 152
+ 0.08442 1 2 cbr 210 ------- 6 1.0 2.0 201 201
- 0.08442 1 2 cbr 210 ------- 6 1.0 2.0 201 201
r 0.084428 1 2 cbr 210 ------- 6 1.0 2.0 153 153
+ 0.08484 1 2 cbr 210 ------- 6 1.0 2.0 202 202
- 0.08484 1 2 cbr 210 ------- 6 1.0 2.0 202 202
r 0.084848 1 2 cbr 210 ------- 6 1.0 2.0 154 154
+ 0.08526 1 2 cbr 210 ------- 6 1.0 2.0 203 203
- 0.08526 1 2 cbr 210 ------- 6 1.0 2.0 203 203
r 0.085268 1 2 cbr 210 ------- 6 1.0 2.0 155 155
+ 0.08568 1 2 cbr 210 ------- 6 1.0 2.0 204 204
- 0.08568 1 2 cbr 210 ------- 6 1.0 2.0 204 204
r 0.085688 1 2 cbr 210 ------- 6 1.0 2.0 156 156
+ 0.0861 1 2 cbr 210 ------- 6 1.0 2.0 205 205
- 0.0861 1 2 cbr 210 ------- 6 1.0 2.0 205 205
r 0.086108 1 2 cbr 210 ------- 6 1.0 2.0 157 157
+ 0.08652 1 2 cbr 210 ------- 6 1.0 2.0 206 206
- 0.08652 1 2 cbr 210 ------- 6 1.0 2.0 206 206
r 0.086528 1 2 cbr 210 ------- 6 1.0 2.0 158 158
+ 0.08694 1 2 cbr 210 ------- 6 1.0 2.0 207 207
- 0.08694 1 2 cbr 210 ------- 6 1.0 2.0 207 207
r 0.086948 1 2 cbr 210 ------- 6 1.0 2.0 159 159
+ 0.08736 1 2 cbr 210 ------- 6 1.0 2.0 208 208
- 0.08736 1 2 cbr 210 ------- 6 1.0 2.0 208 208
r 0.087368 1 2 cbr 210 ------- 6 1.0 2.0 160 160
+ 0.08778 1 2 cbr 210 ------- 6 1.0 2.0 209 209
- 0.08778 1 2 cbr 210 ------- 6 1.0 2.0 209 209
r 0.087788 1 2 cbr 210 ------- 6 1.0 2.0 161 161
+ 0.0882 1 2 cbr 210 ------- 6 1.0 2.0 210 210
- 0.0882 1 2 cbr 210 ------- 6 1.0 2.0 210 210
r 0.088208 1 2 cbr 210 ------- 6 1.0 2.0 162 162
+ 0.08862 1 2 cbr 210 ------- 6 1.0 2.0 211 211
- 0.08862 1 2 cbr 210 ------- 6 1.0 2.0 211 211
r 0.088628 1 2 cbr 210 ------- 6 1.0 2.0 163 163
+ 0.08904 1 2 cbr 210 ------- 6 1.0 2.0 212 212
- 0.08904 1 2 cbr 210 ------- 6 1.0 2.0 212 212
r 0.089048 1 2 cbr 210 ------- 6 1.0 2.0 164 164
+ 0.08946 1 2 cbr 210 ------- 6 1.0 2.0 213 213
- 0.08946 1 2 cbr 210 ------- 6 1.0 2.0 213 213
r 0.089468 1 2 cbr 210 ------- 6 1.0 2.0 165 165
+ 0.08988 1 2 cbr 210 ------- 6 1.0 2.0 214 214
- 0.08988 1 2 cbr 210 ------- 6 1.0 2.0 214 214
r 0.089888 1 2 cbr 210 ------- 6 1.0 2.0 166 166
+ 0.0903 1 2 cbr 210 ------- 6 1.0 2.0 215 215
- 0.0903 1 2 cbr 210 ------- 6 1.0 2.0 215 215
r 0.090308 1 2 cbr 210 ------- 6 1.0 2.0 167 167
+ 0.09072 1 2 cbr 210 ------- 6 1.0 2.0 216 216
- 0.09072 1 2 cbr 210 ------- 6 1.0 2.0 216 216
r 0.090728 1 2 cbr 210 ------- 6 1.0 2.0 168 168
+ 0.09114 1 2 cbr 210 ------- 6 1.0 2.0 217 217
- 0.09114 1 2 cbr 210 ------- 6 1.0 2.0 217 217
r 0.091148 1 2 cbr 210 ------- 6 1.0 2.0 169 169
+ 0.09156 1 2 cbr 210 ------- 6 1.0 2.0 218 218
- 0.09156 1 2 cbr 210 ------- 6 1.0 2.0 218 218
r 0.091568 1 2 cbr 210 ------- 6 1.0 2.0 170 170
+ 0.09198 1 2 cbr 210 ------- 6 1.0 2.0 219 219
- 0.09198 1 2 cbr 210 ------- 6 1.0 2.0 219 219
r 0.091988 1 2 cbr 210 ------- 6 1.0 2.0 171 171
+ 0.0924 1 2 cbr 210 ------- 6 1.0 2.0 220 220
- 0.0924 1 2 cbr 210 ------- 6 1.0 2.0 220 220
r 0.092408 1 2 cbr 210 ------- 6 1.0 2.0 172 172
+ 0.09282 1 2 cbr 210 ------- 6 1.0 2.0 221 221
- 0.09282 1 2 cbr 210 ------- 6 1.0 2.0 221 221
r 0.092828 1 2 cbr 210 ------- 6 1.0 2.0 173 173
+ 0.09324 1 2 cbr 210 ------- 6 1.0 2.0 222 222
- 0.09324 1 2 cbr 210 ------- 6 1.0 2.0 222 222
r 0.093248 1 2 cbr 210 ------- 6 1.0 2.0 174 174
+ 0.09366 1 2 cbr 210 ------- 6 1.0 2.0 223 223
- 0.09366 1 2 cbr 210 ------- 6 1.0 2.0 223 223
r 0.093668 1 2 cbr 210 ------- 6 1.0 2.0 175 175
+ 0.09408 1 2 cbr 210 ------- 6 1.0 2.0 224 224
- 0.09408 1 2 cbr 210 ------- 6 1.0 2.0 224 224
r 0.094088 1 2 cbr 210 ------- 6 1.0 2.0 176 176
+ 0.0945 1 2 cbr 210 ------- 6 1.0 2.0 225 225
- 0.0945 1 2 cbr 210 ------- 6 1.0 2.0 225 225
r 0.094508 1 2 cbr 210 ------- 6 1.0 2.0 177 177
+ 0.09492 1 2 cbr 210 ------- 6 1.0 2.0 226 226
- 0.09492 1 2 cbr 210 ------- 6 1.0 2.0 226 226
r 0.094928 1 2 cbr 210 ------- 6 1.0 2.0 178 178
+ 0.09534 1 2 cbr 210 ------- 6 1.0 2.0 227 227
- 0.09534 1 2 cbr 210 ------- 6 1.0 2.0 227 227
r 0.095348 1 2 cbr 210 ------- 6 1.0 2.0 179 179
+ 0.09576 1 2 cbr 210 ------- 6 1.0 2.0 228 228