+ 0 1 2 cbr 210 ------- 6 1.0 2.0 0 0
- 0 1 2 cbr 210 ------- 6 1.0 2.0 0 0
+ 0.000373 1 2 cbr 210 ------- 6 1.0 2.0 1 1
+ 0.000747 1 2 cbr 210 ------- 6 1.0 2.0 2 2
+ 0.00112 1 2 cbr 210 ------- 6 1.0 2.0 3 3
+ 0.001493 1 2 cbr 210 ------- 6 1.0 2.0 4 4
- 0.00168 1 2 cbr 210 ------- 6 1.0 2.0 1 1
+ 0.001867 1 2 cbr 210 ------- 6 1.0 2.0 5 5
+ 0.00224 1 2 cbr 210 ------- 6 1.0 2.0 6 6
+ 0.002613 1 2 cbr 210 ------- 6 1.0 2.0 7 7
+ 0.002987 1 2 cbr 210 ------- 6 1.0 2.0 8 8
+ 0.00336 1 2 cbr 210 ------- 6 1.0 2.0 9 9
- 0.00336 1 2 cbr 210 ------- 6 1.0 2.0 2 2
+ 0.003733 1 2 cbr 210 ------- 6 1.0 2.0 10 10
+ 0.004107 1 2 cbr 210 ------- 6 1.0 2.0 11 11
+ 0.00448 1 2 cbr 210 ------- 6 1.0 2.0 12 12
+ 0.004853 1 2 cbr 210 ------- 6 1.0 2.0 13 13
- 0.00504 1 2 cbr 210 ------- 6 1.0 2.0 3 3
+ 0.005227 1 2 cbr 210 ------- 6 1.0 2.0 14 14
+ 0.0056 1 2 cbr 210 ------- 6 1.0 2.0 15 15
+ 0.005973 1 2 cbr 210 ------- 6 1.0 2.0 16 16
+ 0.006347 1 2 cbr 210 ------- 6 1.0 2.0 17 17
+ 0.00672 1 2 cbr 210 ------- 6 1.0 2.0 18 18
- 0.00672 1 2 cbr 210 ------- 6 1.0 2.0 4 4
+ 0.007093 1 2 cbr 210 ------- 6 1.0 2.0 19 19
+ 0.007467 1 2 cbr 210 ------- 6 1.0 2.0 20 20
+ 0.00784 1 2 cbr 210 ------- 6 1.0 2.0 21 21
+ 0.008213 1 2 cbr 210 ------- 6 1.0 2.0 22 22
- 0.0084 1 2 cbr 210 ------- 6 1.0 2.0 5 5
+ 0.008587 1 2 cbr 210 ------- 6 1.0 2.0 23 23
+ 0.00896 1 2 cbr 210 ------- 6 1.0 2.0 24 24
+ 0.009333 1 2 cbr 210 ------- 6 1.0 2.0 25 25
d 0.009333 1 2 cbr 210 ------- 6 1.0 2.0 25 25
+ 0.009707 1 2 cbr 210 ------- 6 1.0 2.0 26 26
d 0.009707 1 2 cbr 210 ------- 6 1.0 2.0 26 26
+ 0.01008 1 2 cbr 210 ------- 6 1.0 2.0 27 27
d 0.01008 1 2 cbr 210 ------- 6 1.0 2.0 27 27
- 0.01008 1 2 cbr 210 ------- 6 1.0 2.0 6 6
+ 0.010453 1 2 cbr 210 ------- 6 1.0 2.0 28 28
+ 0.010827 1 2 cbr 210 ------- 6 1.0 2.0 29 29
d 0.010827 1 2 cbr 210 ------- 6 1.0 2.0 29 29
+ 0.0112 1 2 cbr 210 ------- 6 1.0 2.0 30 30
d 0.0112 1 2 cbr 210 ------- 6 1.0 2.0 30 30
+ 0.011573 1 2 cbr 210 ------- 6 1.0 2.0 31 31
d 0.011573 1 2 cbr 210 ------- 6 1.0 2.0 31 31
- 0.01176 1 2 cbr 210 ------- 6 1.0 2.0 7 7
+ 0.011947 1 2 cbr 210 ------- 6 1.0 2.0 32 32
+ 0.01232 1 2 cbr 210 ------- 6 1.0 2.0 33 33
d 0.01232 1 2 cbr 210 ------- 6 1.0 2.0 33 33
+ 0.012693 1 2 cbr 210 ------- 6 1.0 2.0 34 34
d 0.012693 1 2 cbr 210 ------- 6 1.0 2.0 34 34
+ 0.013067 1 2 cbr 210 ------- 6 1.0 2.0 35 35
d 0.013067 1 2 cbr 210 ------- 6 1.0 2.0 35 35
+ 0.01344 1 2 cbr 210 ------- 6 1.0 2.0 36 36
d 0.01344 1 2 cbr 210 ------- 6 1.0 2.0 36 36
- 0.01344 1 2 cbr 210 ------- 6 1.0 2.0 8 8
+ 0.013813 1 2 cbr 210 ------- 6 1.0 2.0 37 37
+ 0.014187 1 2 cbr 210 ------- 6 1.0 2.0 38 38
d 0.014187 1 2 cbr 210 ------- 6 1.0 2.0 38 38
+ 0.01456 1 2 cbr 210 ------- 6 1.0 2.0 39 39
d 0.01456 1 2 cbr 210 ------- 6 1.0 2.0 39 39
+ 0.014933 1 2 cbr 210 ------- 6 1.0 2.0 40 40
d 0.014933 1 2 cbr 210 ------- 6 1.0 2.0 40 40
- 0.01512 1 2 cbr 210 ------- 6 1.0 2.0 9 9
+ 0.015307 1 2 cbr 210 ------- 6 1.0 2.0 41 41
+ 0.01568 1 2 cbr 210 ------- 6 1.0 2.0 42 42
d 0.01568 1 2 cbr 210 ------- 6 1.0 2.0 42 42
+ 0.016053 1 2 cbr 210 ------- 6 1.0 2.0 43 43
d 0.016053 1 2 cbr 210 ------- 6 1.0 2.0 43 43
+ 0.016427 1 2 cbr 210 ------- 6 1.0 2.0 44 44
d 0.016427 1 2 cbr 210 ------- 6 1.0 2.0 44 44
+ 0.0168 1 2 cbr 210 ------- 6 1.0 2.0 45 45
d 0.0168 1 2 cbr 210 ------- 6 1.0 2.0 45 45
- 0.0168 1 2 cbr 210 ------- 6 1.0 2.0 10 10
+ 0.017173 1 2 cbr 210 ------- 6 1.0 2.0 46 46
+ 0.017547 1 2 cbr 210 ------- 6 1.0 2.0 47 47
d 0.017547 1 2 cbr 210 ------- 6 1.0 2.0 47 47
+ 0.01792 1 2 cbr 210 ------- 6 1.0 2.0 48 48
d 0.01792 1 2 cbr 210 ------- 6 1.0 2.0 48 48
+ 0.018293 1 2 cbr 210 ------- 6 1.0 2.0 49 49
d 0.018293 1 2 cbr 210 ------- 6 1.0 2.0 49 49
- 0.01848 1 2 cbr 210 ------- 6 1.0 2.0 11 11
+ 0.018667 1 2 cbr 210 ------- 6 1.0 2.0 50 50
+ 0.01904 1 2 cbr 210 ------- 6 1.0 2.0 51 51
d 0.01904 1 2 cbr 210 ------- 6 1.0 2.0 51 51
+ 0.019413 1 2 cbr 210 ------- 6 1.0 2.0 52 52
d 0.019413 1 2 cbr 210 ------- 6 1.0 2.0 52 52
+ 0.019787 1 2 cbr 210 ------- 6 1.0 2.0 53 53
d 0.019787 1 2 cbr 210 ------- 6 1.0 2.0 53 53
+ 0.02016 1 2 cbr 210 ------- 6 1.0 2.0 54 54
d 0.02016 1 2 cbr 210 ------- 6 1.0 2.0 54 54
- 0.02016 1 2 cbr 210 ------- 6 1.0 2.0 12 12
+ 0.020533 1 2 cbr 210 ------- 6 1.0 2.0 55 55
+ 0.020907 1 2 cbr 210 ------- 6 1.0 2.0 56 56
d 0.020907 1 2 cbr 210 ------- 6 1.0 2.0 56 56
+ 0.02128 1 2 cbr 210 ------- 6 1.0 2.0 57 57
d 0.02128 1 2 cbr 210 ------- 6 1.0 2.0 57 57
+ 0.021653 1 2 cbr 210 ------- 6 1.0 2.0 58 58
d 0.021653 1 2 cbr 210 ------- 6 1.0 2.0 58 58
r 0.02168 1 2 cbr 210 ------- 6 1.0 2.0 0 0
- 0.02184 1 2 cbr 210 ------- 6 1.0 2.0 13 13
+ 0.022027 1 2 cbr 210 ------- 6 1.0 2.0 59 59
+ 0.0224 1 2 cbr 210 ------- 6 1.0 2.0 60 60
d 0.0224 1 2 cbr 210 ------- 6 1.0 2.0 60 60
+ 0.022773 1 2 cbr 210 ------- 6 1.0 2.0 61 61
d 0.022773 1 2 cbr 210 ------- 6 1.0 2.0 61 61
+ 0.023147 1 2 cbr 210 ------- 6 1.0 2.0 62 62
d 0.023147 1 2 cbr 210 ------- 6 1.0 2.0 62 62
r 0.02336 1 2 cbr 210 ------- 6 1.0 2.0 1 1
+ 0.02352 1 2 cbr 210 ------- 6 1.0 2.0 63 63
d 0.02352 1 2 cbr 210 ------- 6 1.0 2.0 63 63
- 0.02352 1 2 cbr 210 ------- 6 1.0 2.0 14 14
+ 0.023893 1 2 cbr 210 ------- 6 1.0 2.0 64 64
+ 0.024267 1 2 cbr 210 ------- 6 1.0 2.0 65 65
d 0.024267 1 2 cbr 210 ------- 6 1.0 2.0 65 65
+ 0.02464 1 2 cbr 210 ------- 6 1.0 2.0 66 66
d 0.02464 1 2 cbr 210 ------- 6 1.0 2.0 66 66
+ 0.025013 1 2 cbr 210 ------- 6 1.0 2.0 67 67
d 0.025013 1 2 cbr 210 ------- 6 1.0 2.0 67 67
r 0.02504 1 2 cbr 210 ------- 6 1.0 2.0 2 2
- 0.0252 1 2 cbr 210 ------- 6 1.0 2.0 15 15
+ 0.025387 1 2 cbr 210 ------- 6 1.0 2.0 68 68
+ 0.02576 1 2 cbr 210 ------- 6 1.0 2.0 69 69
d 0.02576 1 2 cbr 210 ------- 6 1.0 2.0 69 69
+ 0.026133 1 2 cbr 210 ------- 6 1.0 2.0 70 70
d 0.026133 1 2 cbr 210 ------- 6 1.0 2.0 70 70
+ 0.026507 1 2 cbr 210 ------- 6 1.0 2.0 71 71
d 0.026507 1 2 cbr 210 ------- 6 1.0 2.0 71 71
r 0.02672 1 2 cbr 210 ------- 6 1.0 2.0 3 3
+ 0.02688 1 2 cbr 210 ------- 6 1.0 2.0 72 72
d 0.02688 1 2 cbr 210 ------- 6 1.0 2.0 72 72
- 0.02688 1 2 cbr 210 ------- 6 1.0 2.0 16 16
+ 0.027253 1 2 cbr 210 ------- 6 1.0 2.0 73 73
+ 0.027627 1 2 cbr 210 ------- 6 1.0 2.0 74 74
d 0.027627 1 2 cbr 210 ------- 6 1.0 2.0 74 74
+ 0.028 1 2 cbr 210 ------- 6 1.0 2.0 75 75
d 0.028 1 2 cbr 210 ------- 6 1.0 2.0 75 75
+ 0.028373 1 2 cbr 210 ------- 6 1.0 2.0 76 76
d 0.028373 1 2 cbr 210 ------- 6 1.0 2.0 76 76
r 0.0284 1 2 cbr 210 ------- 6 1.0 2.0 4 4
- 0.02856 1 2 cbr 210 ------- 6 1.0 2.0 17 17
+ 0.028747 1 2 cbr 210 ------- 6 1.0 2.0 77 77
+ 0.02912 1 2 cbr 210 ------- 6 1.0 2.0 78 78
d 0.02912 1 2 cbr 210 ------- 6 1.0 2.0 78 78
+ 0.029493 1 2 cbr 210 ------- 6 1.0 2.0 79 79
d 0.029493 1 2 cbr 210 ------- 6 1.0 2.0 79 79
+ 0.029867 1 2 cbr 210 ------- 6 1.0 2.0 80 80
d 0.029867 1 2 cbr 210 ------- 6 1.0 2.0 80 80
r 0.03008 1 2 cbr 210 ------- 6 1.0 2.0 5 5
+ 0.03024 1 2 cbr 210 ------- 6 1.0 2.0 81 81
d 0.03024 1 2 cbr 210 ------- 6 1.0 2.0 81 81
- 0.03024 1 2 cbr 210 ------- 6 1.0 2.0 18 18
+ 0.030613 1 2 cbr 210 ------- 6 1.0 2.0 82 82
+ 0.030987 1 2 cbr 210 ------- 6 1.0 2.0 83 83
d 0.030987 1 2 cbr 210 ------- 6 1.0 2.0 83 83
+ 0.03136 1 2 cbr 210 ------- 6 1.0 2.0 84 84
d 0.03136 1 2 cbr 210 ------- 6 1.0 2.0 84 84
+ 0.031733 1 2 cbr 210 ------- 6 1.0 2.0 85 85
d 0.031733 1 2 cbr 210 ------- 6 1.0 2.0 85 85
r 0.03176 1 2 cbr 210 ------- 6 1.0 2.0 6 6
- 0.03192 1 2 cbr 210 ------- 6 1.0 2.0 19 19
+ 0.032107 1 2 cbr 210 ------- 6 1.0 2.0 86 86
+ 0.03248 1 2 cbr 210 ------- 6 1.0 2.0 87 87
d 0.03248 1 2 cbr 210 ------- 6 1.0 2.0 87 87
+ 0.032853 1 2 cbr 210 ------- 6 1.0 2.0 88 88
d 0.032853 1 2 cbr 210 ------- 6 1.0 2.0 88 88
+ 0.033227 1 2 cbr 210 ------- 6 1.0 2.0 89 89
d 0.033227 1 2 cbr 210 ------- 6 1.0 2.0 89 89
r 0.03344 1 2 cbr 210 ------- 6 1.0 2.0 7 7
- 0.0336 1 2 cbr 210 ------- 6 1.0 2.0 20 20
+ 0.0336 1 2 cbr 210 ------- 6 1.0 2.0 90 90
+ 0.033973 1 2 cbr 210 ------- 6 1.0 2.0 91 91
d 0.033973 1 2 cbr 210 ------- 6 1.0 2.0 91 91
+ 0.034347 1 2 cbr 210 ------- 6 1.0 2.0 92 92
d 0.034347 1 2 cbr 210 ------- 6 1.0 2.0 92 92
+ 0.03472 1 2 cbr 210 ------- 6 1.0 2.0 93 93
d 0.03472 1 2 cbr 210 ------- 6 1.0 2.0 93 93
+ 0.035093 1 2 cbr 210 ------- 6 1.0 2.0 94 94
d 0.035093 1 2 cbr 210 ------- 6 1.0 2.0 94 94
r 0.03512 1 2 cbr 210 ------- 6 1.0 2.0 8 8
- 0.03528 1 2 cbr 210 ------- 6 1.0 2.0 21 21
+ 0.035467 1 2 cbr 210 ------- 6 1.0 2.0 95 95
+ 0.03584 1 2 cbr 210 ------- 6 1.0 2.0 96 96
d 0.03584 1 2 cbr 210 ------- 6 1.0 2.0 96 96
+ 0.036213 1 2 cbr 210 ------- 6 1.0 2.0 97 97
d 0.036213 1 2 cbr 210 ------- 6 1.0 2.0 97 97
+ 0.036587 1 2 cbr 210 ------- 6 1.0 2.0 98 98
d 0.036587 1 2 cbr 210 ------- 6 1.0 2.0 98 98
r 0.0368 1 2 cbr 210 ------- 6 1.0 2.0 9 9
- 0.03696 1 2 cbr 210 ------- 6 1.0 2.0 22 22
+ 0.03696 1 2 cbr 210 ------- 6 1.0 2.0 99 99
+ 0.037333 1 2 cbr 210 ------- 6 1.0 2.0 100 100
d 0.037333 1 2 cbr 210 ------- 6 1.0 2.0 100 100
+ 0.037707 1 2 cbr 210 ------- 6 1.0 2.0 101 101
d 0.037707 1 2 cbr 210 ------- 6 1.0 2.0 101 101
+ 0.03808 1 2 cbr 210 ------- 6 1.0 2.0 102 102
d 0.03808 1 2 cbr 210 ------- 6 1.0 2.0 102 102
+ 0.038453 1 2 cbr 210 ------- 6 1.0 2.0 103 103
d 0.038453 1 2 cbr 210 ------- 6 1.0 2.0 103 103
r 0.03848 1 2 cbr 210 ------- 6 1.0 2.0 10 10
- 0.03864 1 2 cbr 210 ------- 6 1.0 2.0 23 23
+ 0.038827 1 2 cbr 210 ------- 6 1.0 2.0 104 104
+ 0.0392 1 2 cbr 210 ------- 6 1.0 2.0 105 105
d 0.0392 1 2 cbr 210 ------- 6 1.0 2.0 105 105
+ 0.039573 1 2 cbr 210 ------- 6 1.0 2.0 106 106
d 0.039573 1 2 cbr 210 ------- 6 1.0 2.0 106 106
+ 0.039947 1 2 cbr 210 ------- 6 1.0 2.0 107 107
d 0.039947 1 2 cbr 210 ------- 6 1.0 2.0 107 107
r 0.04016 1 2 cbr 210 ------- 6 1.0 2.0 11 11
- 0.04032 1 2 cbr 210 ------- 6 1.0 2.0 24 24
+ 0.04032 1 2 cbr 210 ------- 6 1.0 2.0 108 108
+ 0.040693 1 2 cbr 210 ------- 6 1.0 2.0 109 109
d 0.040693 1 2 cbr 210 ------- 6 1.0 2.0 109 109
+ 0.041067 1 2 cbr 210 ------- 6 1.0 2.0 110 110
d 0.041067 1 2 cbr 210 ------- 6 1.0 2.0 110 110
+ 0.04144 1 2 cbr 210 ------- 6 1.0 2.0 111 111
d 0.04144 1 2 cbr 210 ------- 6 1.0 2.0 111 111
+ 0.041813 1 2 cbr 210 ------- 6 1.0 2.0 112 112
d 0.041813 1 2 cbr 210 ------- 6 1.0 2.0 112 112
r 0.04184 1 2 cbr 210 ------- 6 1.0 2.0 12 12
- 0.042 1 2 cbr 210 ------- 6 1.0 2.0 28 28
+ 0.042187 1 2 cbr 210 ------- 6 1.0 2.0 113 113
+ 0.04256 1 2 cbr 210 ------- 6 1.0 2.0 114 114
d 0.04256 1 2 cbr 210 ------- 6 1.0 2.0 114 114
+ 0.042933 1 2 cbr 210 ------- 6 1.0 2.0 115 115
d 0.042933 1 2 cbr 210 ------- 6 1.0 2.0 115 115
+ 0.043307 1 2 cbr 210 ------- 6 1.0 2.0 116 116
d 0.043307 1 2 cbr 210 ------- 6 1.0 2.0 116 116
r 0.04352 1 2 cbr 210 ------- 6 1.0 2.0 13 13
- 0.04368 1 2 cbr 210 ------- 6 1.0 2.0 32 32
+ 0.04368 1 2 cbr 210 ------- 6 1.0 2.0 117 117
+ 0.044053 1 2 cbr 210 ------- 6 1.0 2.0 118 118
d 0.044053 1 2 cbr 210 ------- 6 1.0 2.0 118 118
+ 0.044427 1 2 cbr 210 ------- 6 1.0 2.0 119 119
d 0.044427 1 2 cbr 210 ------- 6 1.0 2.0 119 119
+ 0.0448 1 2 cbr 210 ------- 6 1.0 2.0 120 120
d 0.0448 1 2 cbr 210 ------- 6 1.0 2.0 120 120
+ 0.045173 1 2 cbr 210 ------- 6 1.0 2.0 121 121
d 0.045173 1 2 cbr 210 ------- 6 1.0 2.0 121 121
r 0.0452 1 2 cbr 210 ------- 6 1.0 2.0 14 14
- 0.04536 1 2 cbr 210 ------- 6 1.0 2.0 37 37
+ 0.045547 1 2 cbr 210 ------- 6 1.0 2.0 122 122
+ 0.04592 1 2 cbr 210 ------- 6 1.0 2.0 123 123
d 0.04592 1 2 cbr 210 ------- 6 1.0 2.0 123 123
+ 0.046293 1 2 cbr 210 ------- 6 1.0 2.0 124 124
d 0.046293 1 2 cbr 210 ------- 6 1.0 2.0 124 124
+ 0.046667 1 2 cbr 210 ------- 6 1.0 2.0 125 125
d 0.046667 1 2 cbr 210 ------- 6 1.0 2.0 125 125
r 0.04688 1 2 cbr 210 ------- 6 1.0 2.0 15 15
- 0.04704 1 2 cbr 210 ------- 6 1.0 2.0 41 41
+ 0.04704 1 2 cbr 210 ------- 6 1.0 2.0 126 126
+ 0.047413 1 2 cbr 210 ------- 6 1.0 2.0 127 127
d 0.047413 1 2 cbr 210 ------- 6 1.0 2.0 127 127
+ 0.047787 1 2 cbr 210 ------- 6 1.0 2.0 128 128
d 0.047787 1 2 cbr 210 ------- 6 1.0 2.0 128 128
+ 0.04816 1 2 cbr 210 ------- 6 1.0 2.0 129 129
d 0.04816 1 2 cbr 210 ------- 6 1.0 2.0 129 129
+ 0.048533 1 2 cbr 210 ------- 6 1.0 2.0 130 130
d 0.048533 1 2 cbr 210 ------- 6 1.0 2.0 130 130
r 0.04856 1 2 cbr 210 ------- 6 1.0 2.0 16 16
- 0.04872 1 2 cbr 210 ------- 6 1.0 2.0 46 46
+ 0.048907 1 2 cbr 210 ------- 6 1.0 2.0 131 131
+ 0.04928 1 2 cbr 210 ------- 6 1.0 2.0 132 132
d 0.04928 1 2 cbr 210 ------- 6 1.0 2.0 132 132
+ 0.049653 1 2 cbr 210 ------- 6 1.0 2.0 133 133
d 0.049653 1 2 cbr 210 ------- 6 1.0 2.0 133 133
+ 0.050027 1 2 cbr 210 ------- 6 1.0 2.0 134 134
d 0.050027 1 2 cbr 210 ------- 6 1.0 2.0 134 134
r 0.05024 1 2 cbr 210 ------- 6 1.0 2.0 17 17
- 0.0504 1 2 cbr 210 ------- 6 1.0 2.0 50 50
+ 0.0504 1 2 cbr 210 ------- 6 1.0 2.0 135 135
+ 0.050773 1 2 cbr 210 ------- 6 1.0 2.0 136 136
d 0.050773 1 2 cbr 210 ------- 6 1.0 2.0 136 136
+ 0.051147 1 2 cbr 210 ------- 6 1.0 2.0 137 137
d 0.051147 1 2 cbr 210 ------- 6 1.0 2.0 137 137
+ 0.05152 1 2 cbr 210 ------- 6 1.0 2.0 138 138
d 0.05152 1 2 cbr 210 ------- 6 1.0 2.0 138 138
+ 0.051893 1 2 cbr 210 ------- 6 1.0 2.0 139 139
d 0.051893 1 2 cbr 210 ------- 6 1.0 2.0 139 139
r 0.05192 1 2 cbr 210 ------- 6 1.0 2.0 18 18
- 0.05208 1 2 cbr 210 ------- 6 1.0 2.0 55 55
+ 0.052267 1 2 cbr 210 ------- 6 1.0 2.0 140 140
+ 0.05264 1 2 cbr 210 ------- 6 1.0 2.0 141 141
d 0.05264 1 2 cbr 210 ------- 6 1.0 2.0 141 141
+ 0.053013 1 2 cbr 210 ------- 6 1.0 2.0 142 142
d 0.053013 1 2 cbr 210 ------- 6 1.0 2.0 142 142
+ 0.053387 1 2 cbr 210 ------- 6 1.0 2.0 143 143
d 0.053387 1 2 cbr 210 ------- 6 1.0 2.0 143 143
r 0.0536 1 2 cbr 210 ------- 6 1.0 2.0 19 19
- 0.05376 1 2 cbr 210 ------- 6 1.0 2.0 59 59
+ 0.05376 1 2 cbr 210 ------- 6 1.0 2.0 144 144
+ 0.054133 1 2 cbr 210 ------- 6 1.0 2.0 145 145
d 0.054133 1 2 cbr 210 ------- 6 1.0 2.0 145 145
+ 0.054507 1 2 cbr 210 ------- 6 1.0 2.0 146 146
d 0.054507 1 2 cbr 210 ------- 6 1.0 2.0 146 146
+ 0.05488 1 2 cbr 210 ------- 6 1.0 2.0 147 147
d 0.05488 1 2 cbr 210 ------- 6 1.0 2.0 147 147
+ 0.055253 1 2 cbr 210 ------- 6 1.0 2.0 148 148
d 0.055253 1 2 cbr 210 ------- 6 1.0 2.0 148 148
r 0.05528 1 2 cbr 210 ------- 6 1.0 2.0 20 20
- 0.05544 1 2 cbr 210 ------- 6 1.0 2.0 64 64
+ 0.055627 1 2 cbr 210 ------- 6 1.0 2.0 149 149
+ 0.056 1 2 cbr 210 ------- 6 1.0 2.0 150 150
d 0.056 1 2 cbr 210 ------- 6 1.0 2.0 150 150
+ 0.056373 1 2 cbr 210 ------- 6 1.0 2.0 151 151
d 0.056373 1 2 cbr 210 ------- 6 1.0 2.0 151 151
+ 0.056747 1 2 cbr 210 ------- 6 1.0 2.0 152 152
d 0.056747 1 2 cbr 210 ------- 6 1.0 2.0 152 152
r 0.05696 1 2 cbr 210 ------- 6 1.0 2.0 21 21
- 0.05712 1 2 cbr 210 ------- 6 1.0 2.0 68 68
+ 0.05712 1 2 cbr 210 ------- 6 1.0 2.0 153 153
+ 0.057493 1 2 cbr 210 ------- 6 1.0 2.0 154 154
d 0.057493 1 2 cbr 210 ------- 6 1.0 2.0 154 154
+ 0.057867 1 2 cbr 210 ------- 6 1.0 2.0 155 155
d 0.057867 1 2 cbr 210 ------- 6 1.0 2.0 155 155
+ 0.05824 1 2 cbr 210 ------- 6 1.0 2.0 156 156
d 0.05824 1 2 cbr 210 ------- 6 1.0 2.0 156 156
+ 0.058613 1 2 cbr 210 ------- 6 1.0 2.0 157 157
d 0.058613 1 2 cbr 210 ------- 6 1.0 2.0 157 157
r 0.05864 1 2 cbr 210 ------- 6 1.0 2.0 22 22
- 0.0588 1 2 cbr 210 ------- 6 1.0 2.0 73 73
+ 0.058987 1 2 cbr 210 ------- 6 1.0 2.0 158 158
+ 0.05936 1 2 cbr 210 ------- 6 1.0 2.0 159 159
d 0.05936 1 2 cbr 210 ------- 6 1.0 2.0 159 159
+ 0.059733 1 2 cbr 210 ------- 6 1.0 2.0 160 160
d 0.059733 1 2 cbr 210 ------- 6 1.0 2.0 160 160
+ 0.060107 1 2 cbr 210 ------- 6 1.0 2.0 161 161
d 0.060107 1 2 cbr 210 ------- 6 1.0 2.0 161 161
r 0.06032 1 2 cbr 210 ------- 6 1.0 2.0 23 23
- 0.06048 1 2 cbr 210 ------- 6 1.0 2.0 77 77
+ 0.06048 1 2 cbr 210 ------- 6 1.0 2.0 162 162
+ 0.060853 1 2 cbr 210 ------- 6 1.0 2.0 163 163
d 0.060853 1 2 cbr 210 ------- 6 1.0 2.0 163 163
+ 0.061227 1 2 cbr 210 ------- 6 1.0 2.0 164 164
d 0.061227 1 2 cbr 210 ------- 6 1.0 2.0 164 164
+ 0.0616 1 2 cbr 210 ------- 6 1.0 2.0 165 165
d 0.0616 1 2 cbr 210 ------- 6 1.0 2.0 165 165
+ 0.061973 1 2 cbr 210 ------- 6 1.0 2.0 166 166
d 0.061973 1 2 cbr 210 ------- 6 1.0 2.0 166 166
r 0.062 1 2 cbr 210 ------- 6 1.0 2.0 24 24
- 0.06216 1 2 cbr 210 ------- 6 1.0 2.0 82 82
+ 0.062347 1 2 cbr 210 ------- 6 1.0 2.0 167 167
+ 0.06272 1 2 cbr 210 ------- 6 1.0 2.0 168 168
d 0.06272 1 2 cbr 210 ------- 6 1.0 2.0 168 168
+ 0.063093 1 2 cbr 210 ------- 6 1.0 2.0 169 169
d 0.063093 1 2 cbr 210 ------- 6 1.0 2.0 169 169
+ 0.063467 1 2 cbr 210 ------- 6 1.0 2.0 170 170
d 0.063467 1 2 cbr 210 ------- 6 1.0 2.0 170 170
r 0.06368 1 2 cbr 210 ------- 6 1.0 2.0 28 28
- 0.06384 1 2 cbr 210 ------- 6 1.0 2.0 86 86
+ 0.06384 1 2 cbr 210 ------- 6 1.0 2.0 171 171
+ 0.064213 1 2 cbr 210 ------- 6 1.0 2.0 172 172
d 0.064213 1 2 cbr 210 ------- 6 1.0 2.0 172 172
+ 0.064587 1 2 cbr 210 ------- 6 1.0 2.0 173 173
d 0.064587 1 2 cbr 210 ------- 6 1.0 2.0 173 173
+ 0.06496 1 2 cbr 210 ------- 6 1.0 2.0 174 174
d 0.06496 1 2 cbr 210 ------- 6 1.0 2.0 174 174
+ 0.065333 1 2 cbr 210 ------- 6 1.0 2.0 175 175
d 0.065333 1 2 cbr 210 ------- 6 1.0 2.0 175 175
r 0.06536 1 2 cbr 210 ------- 6 1.0 2.0 32 32
- 0.06552 1 2 cbr 210 ------- 6 1.0 2.0 90 90
+ 0.065707 1 2 cbr 210 ------- 6 1.0 2.0 176 176
+ 0.06608 1 2 cbr 210 ------- 6 1.0 2.0 177 177
d 0.06608 1 2 cbr 210 ------- 6 1.0 2.0 177 177
+ 0.066453 1 2 cbr 210 ------- 6 1.0 2.0 178 178
d 0.066453 1 2 cbr 210 ------- 6 1.0 2.0 178 178
+ 0.066827 1 2 cbr 210 ------- 6 1.0 2.0 179 179
d 0.066827 1 2 cbr 210 ------- 6 1.0 2.0 179 179
r 0.06704 1 2 cbr 210 ------- 6 1.0 2.0 37 37
- 0.0672 1 2 cbr 210 ------- 6 1.0 2.0 95 95
+ 0.0672 1 2 cbr 210 ------- 6 1.0 2.0 180 180
+ 0.067573 1 2 cbr 210 ------- 6 1.0 2.0 181 181
d 0.067573 1 2 cbr 210 ------- 6 1.0 2.0 181 181
+ 0.067947 1 2 cbr 210 ------- 6 1.0 2.0 182 182
d 0.067947 1 2 cbr 210 ------- 6 1.0 2.0 182 182
+ 0.06832 1 2 cbr 210 ------- 6 1.0 2.0 183 183
d 0.06832 1 2 cbr 210 ------- 6 1.0 2.0 183 183
+ 0.068693 1 2 cbr 210 ------- 6 1.0 2.0 184 184
d 0.068693 1 2 cbr 210 ------- 6 1.0 2.0 184 184
r 0.06872 1 2 cbr 210 ------- 6 1.0 2.0 41 41
- 0.06888 1 2 cbr 210 ------- 6 1.0 2.0 99 99
+ 0.069067 1 2 cbr 210 ------- 6 1.0 2.0 185 185
+ 0.06944 1 2 cbr 210 ------- 6 1.0 2.0 186 186
d 0.06944 1 2 cbr 210 ------- 6 1.0 2.0 186 186
+ 0.069813 1 2 cbr 210 ------- 6 1.0 2.0 187 187
d 0.069813 1 2 cbr 210 ------- 6 1.0 2.0 187 187
+ 0.070187 1 2 cbr 210 ------- 6 1.0 2.0 188 188
d 0.070187 1 2 cbr 210 ------- 6 1.0 2.0 188 188
r 0.0704 1 2 cbr 210 ------- 6 1.0 2.0 46 46
- 0.07056 1 2 cbr 210 ------- 6 1.0 2.0 104 104
+ 0.07056 1 2 cbr 210 ------- 6 1.0 2.0 189 189
+ 0.070933 1 2 cbr 210 ------- 6 1.0 2.0 190 190
d 0.070933 1 2 cbr 210 ------- 6 1.0 2.0 190 190
+ 0.071307 1 2 cbr 210 ------- 6 1.0 2.0 191 191
d 0.071307 1 2 cbr 210 ------- 6 1.0 2.0 191 191
+ 0.07168 1 2 cbr 210 ------- 6 1.0 2.0 192 192
d 0.07168 1 2 cbr 210 ------- 6 1.0 2.0 192 192
+ 0.072053 1 2 cbr 210 ------- 6 1.0 2.0 193 193
d 0.072053 1 2 cbr 210 ------- 6 1.0 2.0 193 193
r 0.07208 1 2 cbr 210 ------- 6 1.0 2.0 50 50
- 0.07224 1 2 cbr 210 ------- 6 1.0 2.0 108 108
+ 0.072427 1 2 cbr 210 ------- 6 1.0 2.0 194 194
+ 0.0728 1 2 cbr 210 ------- 6 1.0 2.0 195 195
d 0.0728 1 2 cbr 210 ------- 6 1.0 2.0 195 195
+ 0.073173 1 2 cbr 210 ------- 6 1.0 2.0 196 196
d 0.073173 1 2 cbr 210 ------- 6 1.0 2.0 196 196
+ 0.073547 1 2 cbr 210 ------- 6 1.0 2.0 197 197
d 0.073547 1 2 cbr 210 ------- 6 1.0 2.0 197 197
r 0.07376 1 2 cbr 210 ------- 6 1.0 2.0 55 55
- 0.07392 1 2 cbr 210 ------- 6 1.0 2.0 113 113
+ 0.07392 1 2 cbr 210 ------- 6 1.0 2.0 198 198
+ 0.074293 1 2 cbr 210 ------- 6 1.0 2.0 199 199
d 0.074293 1 2 cbr 210 ------- 6 1.0 2.0 199 199
+ 0.074667 1 2 cbr 210 ------- 6 1.0 2.0 200 200
d 0.074667 1 2 cbr 210 ------- 6 1.0 2.0 200 200
+ 0.07504 1 2 cbr 210 ------- 6 1.0 2.0 201 201
d 0.07504 1 2 cbr 210 ------- 6 1.0 2.0 201 201
+ 0.075413 1 2 cbr 210 ------- 6 1.0 2.0 202 202
d 0.075413 1 2 cbr 210 ------- 6 1.0 2.0 202 202
r 0.07544 1 2 cbr 210 ------- 6 1.0 2.0 59 59
- 0.0756 1 2 cbr 210 ------- 6 1.0 2.0 117 117
+ 0.075787 1 2 cbr 210 ------- 6 1.0 2.0 203 203
+ 0.07616 1 2 cbr 210 ------- 6 1.0 2.0 204 204
d 0.07616 1 2 cbr 210 ------- 6 1.0 2.0 204 204
+ 0.076533 1 2 cbr 210 ------- 6 1.0 2.0 205 205
d 0.076533 1 2 cbr 210 ------- 6 1.0 2.0 205 205
+ 0.076907 1 2 cbr 210 ------- 6 1.0 2.0 206 206
d 0.076907 1 2 cbr 210 ------- 6 1.0 2.0 206 206
r 0.07712 1 2 cbr 210 ------- 6 1.0 2.0 64 64
- 0.07728 1 2 cbr 210 ------- 6 1.0 2.0 122 122
+ 0.07728 1 2 cbr 210 ------- 6 1.0 2.0 207 207
+ 0.077653 1 2 cbr 210 ------- 6 1.0 2.0 208 208
d 0.077653 1 2 cbr 210 ------- 6 1.0 2.0 208 208
+ 0.078027 1 2 cbr 210 ------- 6 1.0 2.0 209 209
d 0.078027 1 2 cbr 210 ------- 6 1.0 2.0 209 209
+ 0.0784 1 2 cbr 210 ------- 6 1.0 2.0 210 210
d 0.0784 1 2 cbr 210 ------- 6 1.0 2.0 210 210
+ 0.078773 1 2 cbr 210 ------- 6 1.0 2.0 211 211
d 0.078773 1 2 cbr 210 ------- 6 1.0 2.0 211 211
r 0.0788 1 2 cbr 210 ------- 6 1.0 2.0 68 68
- 0.07896 1 2 cbr 210 ------- 6 1.0 2.0 126 126
+ 0.079147 1 2 cbr 210 ------- 6 1.0 2.0 212 212
+ 0.07952 1 2 cbr 210 ------- 6 1.0 2.0 213 213
d 0.07952 1 2 cbr 210 ------- 6 1.0 2.0 213 213
+ 0.079893 1 2 cbr 210 ------- 6 1.0 2.0 214 214
d 0.079893 1 2 cbr 210 ------- 6 1.0 2.0 214 214
+ 0.080267 1 2 cbr 210 ------- 6 1.0 2.0 215 215
d 0.080267 1 2 cbr 210 ------- 6 1.0 2.0 215 215
r 0.08048 1 2 cbr 210 ------- 6 1.0 2.0 73 73
- 0.08064 1 2 cbr 210 ------- 6 1.0 2.0 131 131
+ 0.08064 1 2 cbr 210 ------- 6 1.0 2.0 216 216
+ 0.081013 1 2 cbr 210 ------- 6 1.0 2.0 217 217
d 0.081013 1 2 cbr 210 ------- 6 1.0 2.0 217 217
+ 0.081387 1 2 cbr 210 ------- 6 1.0 2.0 218 218
d 0.081387 1 2 cbr 210 ------- 6 1.0 2.0 218 218
+ 0.08176 1 2 cbr 210 ------- 6 1.0 2.0 219 219
d 0.08176 1 2 cbr 210 ------- 6 1.0 2.0 219 219
+ 0.082133 1 2 cbr 210 ------- 6 1.0 2.0 220 220
d 0.082133 1 2 cbr 210 ------- 6 1.0 2.0 220 220
r 0.08216 1 2 cbr 210 ------- 6 1.0 2.0 77 77
- 0.08232 1 2 cbr 210 ------- 6 1.0 2.0 135 135
+ 0.082507 1 2 cbr 210 ------- 6 1.0 2.0 221 221
+ 0.08288 1 2 cbr 210 ------- 6 1.0 2.0 222 222
d 0.08288 1 2 cbr 210 ------- 6 1.0 2.0 222 222
+ 0.083253 1 2 cbr 210 ------- 6 1.0 2.0 223 223
d 0.083253 1 2 cbr 210 ------- 6 1.0 2.0 223 223
+ 0.083627 1 2 cbr 210 ------- 6 1.0 2.0 224 224
d 0.083627 1 2 cbr 210 ------- 6 1.0 2.0 224 224
r 0.08384 1 2 cbr 210 ------- 6 1.0 2.0 82 82
- 0.084 1 2 cbr 210 ------- 6 1.0 2.0 140 140
+ 0.084 1 2 cbr 210 ------- 6 1.0 2.0 225 225
+ 0.084373 1 2 cbr 210 ------- 6 1.0 2.0 226 226
d 0.084373 1 2 cbr 210 ------- 6 1.0 2.0 226 226
+ 0.084747 1 2 cbr 210 ------- 6 1.0 2.0 227 227
d 0.084747 1 2 cbr 210 ------- 6 1.0 2.0 227 227
+ 0.08512 1 2 cbr 210 ------- 6 1.0 2.0 228 228
d 0.08512 1 2 cbr 210 ------- 6 1.0 2.0 228 228
+ 0.085493 1 2 cbr 210 ------- 6 1.0 2.0 229 229
d 0.085493 1 2 cbr 210 ------- 6 1.0 2.0 229 229
r 0.08552 1 2 cbr 210 ------- 6 1.0 2.0 86 86
- 0.08568 1 2 cbr 210 ------- 6 1.0 2.0 144 144
+ 0.085867 1 2 cbr 210 ------- 6 1.0 2.0 230 230
+ 0.08624 1 2 cbr 210 ------- 6 1.0 2.0 231 231
d 0.08624 1 2 cbr 210 ------- 6 1.0 2.0 231 231
+ 0.086613 1 2 cbr 210 ------- 6 1.0 2.0 232 232
d 0.086613 1 2 cbr 210 ------- 6 1.0 2.0 232 232
+ 0.086987 1 2 cbr 210 ------- 6 1.0 2.0 233 233
d 0.086987 1 2 cbr 210 ------- 6 1.0 2.0 233 233
r 0.0872 1 2 cbr 210 ------- 6 1.0 2.0 90 90
- 0.08736 1 2 cbr 210 ------- 6 1.0 2.0 149 149
+ 0.08736 1 2 cbr 210 ------- 6 1.0 2.0 234 234
+ 0.087733 1 2 cbr 210 ------- 6 1.0 2.0 235 235
d 0.087733 1 2 cbr 210 ------- 6 1.0 2.0 235 235
+ 0.088107 1 2 cbr 210 ------- 6 1.0 2.0 236 236
d 0.088107 1 2 cbr 210 ------- 6 1.0 2.0 236 236
+ 0.08848 1 2 cbr 210 ------- 6 1.0 2.0 237 237
d 0.08848 1 2 cbr 210 ------- 6 1.0 2.0 237 237
+ 0.088853 1 2 cbr 210 ------- 6 1.0 2.0 238 238
d 0.088853 1 2 cbr 210 ------- 6 1.0 2.0 238 238
r 0.08888 1 2 cbr 210 ------- 6 1.0 2.0 95 95
- 0.08904 1 2 cbr 210 ------- 6 1.0 2.0 153 153
+ 0.089227 1 2 cbr 210 ------- 6 1.0 2.0 239 239
+ 0.0896 1 2 cbr 210 ------- 6 1.0 2.0 240 240
d 0.0896 1 2 cbr 210 ------- 6 1.0 2.0 240 240
+ 0.089973 1 2 cbr 210 ------- 6 1.0 2.0 241 241
d 0.089973 1 2 cbr 210 ------- 6 1.0 2.0 241 241
+ 0.090347 1 2 cbr 210 ------- 6 1.0 2.0 242 242
d 0.090347 1 2 cbr 210 ------- 6 1.0 2.0 242 242
r 0.09056 1 2 cbr 210 ------- 6 1.0 2.0 99 99
- 0.09072 1 2 cbr 210 ------- 6 1.0 2.0 158 158
+ 0.09072 1 2 cbr 210 ------- 6 1.0 2.0 243 243
+ 0.091093 1 2 cbr 210 ------- 6 1.0 2.0 244 244
d 0.091093 1 2 cbr 210 ------- 6 1.0 2.0 244 244
+ 0.091467 1 2 cbr 210 ------- 6 1.0 2.0 245 245
d 0.091467 1 2 cbr 210 ------- 6 1.0 2.0 245 245
+ 0.09184 1 2 cbr 210 ------- 6 1.0 2.0 246 246
d 0.09184 1 2 cbr 210 ------- 6 1.0 2.0 246 246
+ 0.092213 1 2 cbr 210 ------- 6 1.0 2.0 247 247
d 0.092213 1 2 cbr 210 ------- 6 1.0 2.0 247 247
r 0.09224 1 2 cbr 210 ------- 6 1.0 2.0 104 104
- 0.0924 1 2 cbr 210 ------- 6 1.0 2.0 162 162
+ 0.092587 1 2 cbr 210 ------- 6 1.0 2.0 248 248
+ 0.09296 1 2 cbr 210 ------- 6 1.0 2.0 249 249
d 0.09296 1 2 cbr 210 ------- 6 1.0 2.0 249 249
+ 0.093333 1 2 cbr 210 ------- 6 1.0 2.0 250 250
d 0.093333 1 2 cbr 210 ------- 6 1.0 2.0 250 250
+ 0.093707 1 2 cbr 210 ------- 6 1.0 2.0 251 251
d 0.093707 1 2 cbr 210 ------- 6 1.0 2.0 251 251
r 0.09392 1 2 cbr 210 ------- 6 1.0 2.0 108 108
- 0.09408 1 2 cbr 210 ------- 6 1.0 2.0 167 167
+ 0.09408 1 2 cbr 210 ------- 6 1.0 2.0 252 252
+ 0.094453 1 2 cbr 210 ------- 6 1.0 2.0 253 253
d 0.094453 1 2 cbr 210 ------- 6 1.0 2.0 253 253
+ 0.094827 1 2 cbr 210 ------- 6 1.0 2.0 254 254
d 0.094827 1 2 cbr 210 ------- 6 1.0 2.0 254 254
+ 0.0952 1 2 cbr 210 ------- 6 1.0 2.0 255 255
d 0.0952 1 2 cbr 210 ------- 6 1.0 2.0 255 255
+ 0.095573 1 2 cbr 210 ------- 6 1.0 2.0 256 256
d 0.095573 1 2 cbr 210 ------- 6 1.0 2.0 256 256
r 0.0956 1 2 cbr 210 ------- 6 1.0 2.0 113 113
- 0.09576 1 2 cbr 210 ------- 6 1.0 2.0 171 171
+ 0.095947 1 2 cbr 210 ------- 6 1.0 2.0 257 257
+ 0.09632 1 2 cbr 210 ------- 6 1.0 2.0 258 258
d 0.09632 1 2 cbr 210 ------- 6 1.0 2.0 258 258
+ 0.096693 1 2 cbr 210 ------- 6 1.0 2.0 259 259
d 0.096693 1 2 cbr 210 ------- 6 1.0 2.0 259 259
+ 0.097067 1 2 cbr 210 ------- 6 1.0 2.0 260 260
d 0.097067 1 2 cbr 210 ------- 6 1.0 2.0 260 260
r 0.09728 1 2 cbr 210 ------- 6 1.0 2.0 117 117
- 0.09744 1 2 cbr 210 ------- 6 1.0 2.0 176 176
+ 0.09744 1 2 cbr 210 ------- 6 1.0 2.0 261 261
+ 0.097813 1 2 cbr 210 ------- 6 1.0 2.0 262 262
d 0.097813 1 2 cbr 210 ------- 6 1.0 2.0 262 262
+ 0.098187 1 2 cbr 210 ------- 6 1.0 2.0 263 263
d 0.098187 1 2 cbr 210 ------- 6 1.0 2.0 263 263
+ 0.09856 1 2 cbr 210 ------- 6 1.0 2.0 264 264
d 0.09856 1 2 cbr 210 ------- 6 1.0 2.0 264 264
+ 0.098933 1 2 cbr 210 ------- 6 1.0 2.0 265 265
d 0.098933 1 2 cbr 210 ------- 6 1.0 2.0 265 265
r 0.09896 1 2 cbr 210 ------- 6 1.0 2.0 122 122
- 0.09912 1 2 cbr 210 ------- 6 1.0 2.0 180 180
+ 0.099307 1 2 cbr 210 ------- 6 1.0 2.0 266 266
+ 0.09968 1 2 cbr 210 ------- 6 1.0 2.0 267 267
d 0.09968 1 2 cbr 210 ------- 6 1.0 2.0 267 267
+ 0.100053 1 2 cbr 210 ------- 6 1.0 2.0 268 268
d 0.100053 1 2 cbr 210 ------- 6 1.0 2.0 268 268
+ 0.100427 1 2 cbr 210 ------- 6 1.0 2.0 269 269
d 0.100427 1 2 cbr 210 ------- 6 1.0 2.0 269 269
r 0.10064 1 2 cbr 210 ------- 6 1.0 2.0 126 126
- 0.1008 1 2 cbr 210 ------- 6 1.0 2.0 185 185
+ 0.1008 1 2 cbr 210 ------- 6 1.0 2.0 270 270
+ 0.101173 1 2 cbr 210 ------- 6 1.0 2.0 271 271
d 0.101173 1 2 cbr 210 ------- 6 1.0 2.0 271 271
+ 0.101547 1 2 cbr 210 ------- 6 1.0 2.0 272 272
d 0.101547 1 2 cbr 210 ------- 6 1.0 2.0 272 272
+ 0.10192 1 2 cbr 210 ------- 6 1.0 2.0 273 273
d 0.10192 1 2 cbr 210 ------- 6 1.0 2.0 273 273
+ 0.102293 1 2 cbr 210 ------- 6 1.0 2.0 274 274
d 0.102293 1 2 cbr 210 ------- 6 1.0 2.0 274 274
r 0.10232 1 2 cbr 210 ------- 6 1.0 2.0 131 131
- 0.10248 1 2 cbr 210 ------- 6 1.0 2.0 189 189
+ 0.102667 1 2 cbr 210 ------- 6 1.0 2.0 275 275
+ 0.10304 1 2 cbr 210 ------- 6 1.0 2.0 276 276
d 0.10304 1 2 cbr 210 ------- 6 1.0 2.0 276 276
+ 0.103413 1 2 cbr 210 ------- 6 1.0 2.0 277 277
d 0.103413 1 2 cbr 210 ------- 6 1.0 2.0 277 277
+ 0.103787 1 2 cbr 210 ------- 6 1.0 2.0 278 278
d 0.103787 1 2 cbr 210 ------- 6 1.0 2.0 278 278
r 0.104 1 2 cbr 210 ------- 6 1.0 2.0 135 135
- 0.10416 1 2 cbr 210 ------- 6 1.0 2.0 194 194
+ 0.10416 1 2 cbr 210 ------- 6 1.0 2.0 279 279
+ 0.104533 1 2 cbr 210 ------- 6 1.0 2.0 280 280
d 0.104533 1 2 cbr 210 ------- 6 1.0 2.0 280 280
+ 0.104907 1 2 cbr 210 ------- 6 1.0 2.0 281 281
d 0.104907 1 2 cbr 210 ------- 6 1.0 2.0 281 281
+ 0.10528 1 2 cbr 210 ------- 6 1.0 2.0 282 282
d 0.10528 1 2 cbr 210 ------- 6 1.0 2.0 282 282
+ 0.105653 1 2 cbr 210 ------- 6 1.0 2.0 283 283
d 0.105653 1 2 cbr 210 ------- 6 1.0 2.0 283 283
r 0.10568 1 2 cbr 210 ------- 6 1.0 2.0 140 140
- 0.10584 1 2 cbr 210 ------- 6 1.0 2.0 198 198
+ 0.106027 1 2 cbr 210 ------- 6 1.0 2.0 284 284
+ 0.1064 1 2 cbr 210 ------- 6 1.0 2.0 285 285
d 0.1064 1 2 cbr 210 ------- 6 1.0 2.0 285 285
+ 0.106773 1 2 cbr 210 ------- 6 1.0 2.0 286 286
d 0.106773 1 2 cbr 210 ------- 6 1.0 2.0 286 286
+ 0.107147 1 2 cbr 210 ------- 6 1.0 2.0 287 287
d 0.107147 1 2 cbr 210 ------- 6 1.0 2.0 287 287
r 0.10736 1 2 cbr 210 ------- 6 1.0 2.0 144 144
- 0.10752 1 2 cbr 210 ------- 6 1.0 2.0 203 203
+ 0.10752 1 2 cbr 210 ------- 6 1.0 2.0 288 288
+ 0.107893 1 2 cbr 210 ------- 6 1.0 2.0 289 289
d 0.107893 1 2 cbr 210 ------- 6 1.0 2.0 289 289
+ 0.108267 1 2 cbr 210 ------- 6 1.0 2.0 290 290
d 0.108267 1 2 cbr 210 ------- 6 1.0 2.0 290 290
+ 0.10864 1 2 cbr 210 ------- 6 1.0 2.0 291 291
d 0.10864 1 2 cbr 210 ------- 6 1.0 2.0 291 291
+ 0.109013 1 2 cbr 210 ------- 6 1.0 2.0 292 292
d 0.109013 1 2 cbr 210 ------- 6 1.0 2.0 292 292
r 0.10904 1 2 cbr 210 ------- 6 1.0 2.0 149 149
- 0.1092 1 2 cbr 210 ------- 6 1.0 2.0 207 207
+ 0.109387 1 2 cbr 210 ------- 6 1.0 2.0 293 293
+ 0.10976 1 2 cbr 210 ------- 6 1.0 2.0 294 294
d 0.10976 1 2 cbr 210 ------- 6 1.0 2.0 294 294
+ 0.110133 1 2 cbr 210 ------- 6 1.0 2.0 295 295
d 0.110133 1 2 cbr 210 ------- 6 1.0 2.0 295 295
+ 0.110507 1 2 cbr 210 ------- 6 1.0 2.0 296 296
d 0.110507 1 2 cbr 210 ------- 6 1.0 2.0 296 296
r 0.11072 1 2 cbr 210 ------- 6 1.0 2.0 153 153
- 0.11088 1 2 cbr 210 ------- 6 1.0 2.0 212 212