+ 0 1 2 cbr 210 ------- 6 1.0 2.0 0 0
- 0 1 2 cbr 210 ------- 6 1.0 2.0 0 0
+ 0.00084 1 2 cbr 210 ------- 6 1.0 2.0 1 1
- 0.00084 1 2 cbr 210 ------- 6 1.0 2.0 1 1
+ 0.00168 1 2 cbr 210 ------- 6 1.0 2.0 2 2
- 0.00168 1 2 cbr 210 ------- 6 1.0 2.0 2 2
+ 0.00252 1 2 cbr 210 ------- 6 1.0 2.0 3 3
- 0.00252 1 2 cbr 210 ------- 6 1.0 2.0 3 3
+ 0.00336 1 2 cbr 210 ------- 6 1.0 2.0 4 4
- 0.00336 1 2 cbr 210 ------- 6 1.0 2.0 4 4
+ 0.0042 1 2 cbr 210 ------- 6 1.0 2.0 5 5
- 0.0042 1 2 cbr 210 ------- 6 1.0 2.0 5 5
+ 0.00504 1 2 cbr 210 ------- 6 1.0 2.0 6 6
- 0.00504 1 2 cbr 210 ------- 6 1.0 2.0 6 6
+ 0.00588 1 2 cbr 210 ------- 6 1.0 2.0 7 7
- 0.00588 1 2 cbr 210 ------- 6 1.0 2.0 7 7
+ 0.00672 1 2 cbr 210 ------- 6 1.0 2.0 8 8
- 0.00672 1 2 cbr 210 ------- 6 1.0 2.0 8 8
+ 0.00756 1 2 cbr 210 ------- 6 1.0 2.0 9 9
- 0.00756 1 2 cbr 210 ------- 6 1.0 2.0 9 9
+ 0.0084 1 2 cbr 210 ------- 6 1.0 2.0 10 10
- 0.0084 1 2 cbr 210 ------- 6 1.0 2.0 10 10
+ 0.00924 1 2 cbr 210 ------- 6 1.0 2.0 11 11
- 0.00924 1 2 cbr 210 ------- 6 1.0 2.0 11 11
+ 0.01008 1 2 cbr 210 ------- 6 1.0 2.0 12 12
- 0.01008 1 2 cbr 210 ------- 6 1.0 2.0 12 12
+ 0.01092 1 2 cbr 210 ------- 6 1.0 2.0 13 13
- 0.01092 1 2 cbr 210 ------- 6 1.0 2.0 13 13
+ 0.01176 1 2 cbr 210 ------- 6 1.0 2.0 14 14
- 0.01176 1 2 cbr 210 ------- 6 1.0 2.0 14 14
+ 0.0126 1 2 cbr 210 ------- 6 1.0 2.0 15 15
- 0.0126 1 2 cbr 210 ------- 6 1.0 2.0 15 15
+ 0.01344 1 2 cbr 210 ------- 6 1.0 2.0 16 16
- 0.01344 1 2 cbr 210 ------- 6 1.0 2.0 16 16
+ 0.01428 1 2 cbr 210 ------- 6 1.0 2.0 17 17
- 0.01428 1 2 cbr 210 ------- 6 1.0 2.0 17 17
+ 0.01512 1 2 cbr 210 ------- 6 1.0 2.0 18 18
- 0.01512 1 2 cbr 210 ------- 6 1.0 2.0 18 18
+ 0.01596 1 2 cbr 210 ------- 6 1.0 2.0 19 19
- 0.01596 1 2 cbr 210 ------- 6 1.0 2.0 19 19
+ 0.0168 1 2 cbr 210 ------- 6 1.0 2.0 20 20
- 0.0168 1 2 cbr 210 ------- 6 1.0 2.0 20 20
+ 0.01764 1 2 cbr 210 ------- 6 1.0 2.0 21 21
- 0.01764 1 2 cbr 210 ------- 6 1.0 2.0 21 21
+ 0.01848 1 2 cbr 210 ------- 6 1.0 2.0 22 22
- 0.01848 1 2 cbr 210 ------- 6 1.0 2.0 22 22
+ 0.01932 1 2 cbr 210 ------- 6 1.0 2.0 23 23
- 0.01932 1 2 cbr 210 ------- 6 1.0 2.0 23 23
+ 0.02016 1 2 cbr 210 ------- 6 1.0 2.0 24 24
- 0.02016 1 2 cbr 210 ------- 6 1.0 2.0 24 24
r 0.020168 1 2 cbr 210 ------- 6 1.0 2.0 0 0
+ 0.021 1 2 cbr 210 ------- 6 1.0 2.0 25 25
- 0.021 1 2 cbr 210 ------- 6 1.0 2.0 25 25
r 0.021008 1 2 cbr 210 ------- 6 1.0 2.0 1 1
+ 0.02184 1 2 cbr 210 ------- 6 1.0 2.0 26 26
- 0.02184 1 2 cbr 210 ------- 6 1.0 2.0 26 26
r 0.021848 1 2 cbr 210 ------- 6 1.0 2.0 2 2
+ 0.02268 1 2 cbr 210 ------- 6 1.0 2.0 27 27
- 0.02268 1 2 cbr 210 ------- 6 1.0 2.0 27 27
r 0.022688 1 2 cbr 210 ------- 6 1.0 2.0 3 3
+ 0.02352 1 2 cbr 210 ------- 6 1.0 2.0 28 28
- 0.02352 1 2 cbr 210 ------- 6 1.0 2.0 28 28
r 0.023528 1 2 cbr 210 ------- 6 1.0 2.0 4 4
+ 0.02436 1 2 cbr 210 ------- 6 1.0 2.0 29 29
- 0.02436 1 2 cbr 210 ------- 6 1.0 2.0 29 29
r 0.024368 1 2 cbr 210 ------- 6 1.0 2.0 5 5
+ 0.0252 1 2 cbr 210 ------- 6 1.0 2.0 30 30
- 0.0252 1 2 cbr 210 ------- 6 1.0 2.0 30 30
r 0.025208 1 2 cbr 210 ------- 6 1.0 2.0 6 6
+ 0.02604 1 2 cbr 210 ------- 6 1.0 2.0 31 31
- 0.02604 1 2 cbr 210 ------- 6 1.0 2.0 31 31
r 0.026048 1 2 cbr 210 ------- 6 1.0 2.0 7 7
+ 0.02688 1 2 cbr 210 ------- 6 1.0 2.0 32 32
- 0.02688 1 2 cbr 210 ------- 6 1.0 2.0 32 32
r 0.026888 1 2 cbr 210 ------- 6 1.0 2.0 8 8
+ 0.02772 1 2 cbr 210 ------- 6 1.0 2.0 33 33
- 0.02772 1 2 cbr 210 ------- 6 1.0 2.0 33 33
r 0.027728 1 2 cbr 210 ------- 6 1.0 2.0 9 9
+ 0.02856 1 2 cbr 210 ------- 6 1.0 2.0 34 34
- 0.02856 1 2 cbr 210 ------- 6 1.0 2.0 34 34
r 0.028568 1 2 cbr 210 ------- 6 1.0 2.0 10 10
+ 0.0294 1 2 cbr 210 ------- 6 1.0 2.0 35 35
- 0.0294 1 2 cbr 210 ------- 6 1.0 2.0 35 35
r 0.029408 1 2 cbr 210 ------- 6 1.0 2.0 11 11
+ 0.03024 1 2 cbr 210 ------- 6 1.0 2.0 36 36
- 0.03024 1 2 cbr 210 ------- 6 1.0 2.0 36 36
r 0.030248 1 2 cbr 210 ------- 6 1.0 2.0 12 12
+ 0.03108 1 2 cbr 210 ------- 6 1.0 2.0 37 37
- 0.03108 1 2 cbr 210 ------- 6 1.0 2.0 37 37
r 0.031088 1 2 cbr 210 ------- 6 1.0 2.0 13 13
+ 0.03192 1 2 cbr 210 ------- 6 1.0 2.0 38 38
- 0.03192 1 2 cbr 210 ------- 6 1.0 2.0 38 38
r 0.031928 1 2 cbr 210 ------- 6 1.0 2.0 14 14
+ 0.03276 1 2 cbr 210 ------- 6 1.0 2.0 39 39
- 0.03276 1 2 cbr 210 ------- 6 1.0 2.0 39 39
r 0.032768 1 2 cbr 210 ------- 6 1.0 2.0 15 15
+ 0.0336 1 2 cbr 210 ------- 6 1.0 2.0 40 40
- 0.0336 1 2 cbr 210 ------- 6 1.0 2.0 40 40
r 0.033608 1 2 cbr 210 ------- 6 1.0 2.0 16 16
+ 0.03444 1 2 cbr 210 ------- 6 1.0 2.0 41 41
- 0.03444 1 2 cbr 210 ------- 6 1.0 2.0 41 41
r 0.034448 1 2 cbr 210 ------- 6 1.0 2.0 17 17
+ 0.03528 1 2 cbr 210 ------- 6 1.0 2.0 42 42
- 0.03528 1 2 cbr 210 ------- 6 1.0 2.0 42 42
r 0.035288 1 2 cbr 210 ------- 6 1.0 2.0 18 18
+ 0.03612 1 2 cbr 210 ------- 6 1.0 2.0 43 43
- 0.03612 1 2 cbr 210 ------- 6 1.0 2.0 43 43
r 0.036128 1 2 cbr 210 ------- 6 1.0 2.0 19 19
+ 0.03696 1 2 cbr 210 ------- 6 1.0 2.0 44 44
- 0.03696 1 2 cbr 210 ------- 6 1.0 2.0 44 44
r 0.036968 1 2 cbr 210 ------- 6 1.0 2.0 20 20
+ 0.0378 1 2 cbr 210 ------- 6 1.0 2.0 45 45
- 0.0378 1 2 cbr 210 ------- 6 1.0 2.0 45 45
r 0.037808 1 2 cbr 210 ------- 6 1.0 2.0 21 21
+ 0.03864 1 2 cbr 210 ------- 6 1.0 2.0 46 46
- 0.03864 1 2 cbr 210 ------- 6 1.0 2.0 46 46
r 0.038648 1 2 cbr 210 ------- 6 1.0 2.0 22 22
+ 0.03948 1 2 cbr 210 ------- 6 1.0 2.0 47 47
- 0.03948 1 2 cbr 210 ------- 6 1.0 2.0 47 47
r 0.039488 1 2 cbr 210 ------- 6 1.0 2.0 23 23
+ 0.04032 1 2 cbr 210 ------- 6 1.0 2.0 48 48
- 0.04032 1 2 cbr 210 ------- 6 1.0 2.0 48 48
r 0.040328 1 2 cbr 210 ------- 6 1.0 2.0 24 24
+ 0.04116 1 2 cbr 210 ------- 6 1.0 2.0 49 49
- 0.04116 1 2 cbr 210 ------- 6 1.0 2.0 49 49
r 0.041168 1 2 cbr 210 ------- 6 1.0 2.0 25 25
+ 0.042 1 2 cbr 210 ------- 6 1.0 2.0 50 50
- 0.042 1 2 cbr 210 ------- 6 1.0 2.0 50 50
r 0.042008 1 2 cbr 210 ------- 6 1.0 2.0 26 26
+ 0.04284 1 2 cbr 210 ------- 6 1.0 2.0 51 51
- 0.04284 1 2 cbr 210 ------- 6 1.0 2.0 51 51
r 0.042848 1 2 cbr 210 ------- 6 1.0 2.0 27 27
+ 0.04368 1 2 cbr 210 ------- 6 1.0 2.0 52 52
- 0.04368 1 2 cbr 210 ------- 6 1.0 2.0 52 52
r 0.043688 1 2 cbr 210 ------- 6 1.0 2.0 28 28
+ 0.04452 1 2 cbr 210 ------- 6 1.0 2.0 53 53
- 0.04452 1 2 cbr 210 ------- 6 1.0 2.0 53 53
r 0.044528 1 2 cbr 210 ------- 6 1.0 2.0 29 29
+ 0.04536 1 2 cbr 210 ------- 6 1.0 2.0 54 54
- 0.04536 1 2 cbr 210 ------- 6 1.0 2.0 54 54
r 0.045368 1 2 cbr 210 ------- 6 1.0 2.0 30 30
+ 0.0462 1 2 cbr 210 ------- 6 1.0 2.0 55 55
- 0.0462 1 2 cbr 210 ------- 6 1.0 2.0 55 55
r 0.046208 1 2 cbr 210 ------- 6 1.0 2.0 31 31
+ 0.04704 1 2 cbr 210 ------- 6 1.0 2.0 56 56
- 0.04704 1 2 cbr 210 ------- 6 1.0 2.0 56 56
r 0.047048 1 2 cbr 210 ------- 6 1.0 2.0 32 32
+ 0.04788 1 2 cbr 210 ------- 6 1.0 2.0 57 57
- 0.04788 1 2 cbr 210 ------- 6 1.0 2.0 57 57
r 0.047888 1 2 cbr 210 ------- 6 1.0 2.0 33 33
+ 0.04872 1 2 cbr 210 ------- 6 1.0 2.0 58 58
- 0.04872 1 2 cbr 210 ------- 6 1.0 2.0 58 58
r 0.048728 1 2 cbr 210 ------- 6 1.0 2.0 34 34
+ 0.04956 1 2 cbr 210 ------- 6 1.0 2.0 59 59
- 0.04956 1 2 cbr 210 ------- 6 1.0 2.0 59 59
r 0.049568 1 2 cbr 210 ------- 6 1.0 2.0 35 35
+ 0.0504 1 2 cbr 210 ------- 6 1.0 2.0 60 60
- 0.0504 1 2 cbr 210 ------- 6 1.0 2.0 60 60
r 0.050408 1 2 cbr 210 ------- 6 1.0 2.0 36 36
+ 0.05124 1 2 cbr 210 ------- 6 1.0 2.0 61 61
- 0.05124 1 2 cbr 210 ------- 6 1.0 2.0 61 61
r 0.051248 1 2 cbr 210 ------- 6 1.0 2.0 37 37
+ 0.05208 1 2 cbr 210 ------- 6 1.0 2.0 62 62
- 0.05208 1 2 cbr 210 ------- 6 1.0 2.0 62 62
r 0.052088 1 2 cbr 210 ------- 6 1.0 2.0 38 38
+ 0.05292 1 2 cbr 210 ------- 6 1.0 2.0 63 63
- 0.05292 1 2 cbr 210 ------- 6 1.0 2.0 63 63
r 0.052928 1 2 cbr 210 ------- 6 1.0 2.0 39 39
+ 0.05376 1 2 cbr 210 ------- 6 1.0 2.0 64 64
- 0.05376 1 2 cbr 210 ------- 6 1.0 2.0 64 64
r 0.053768 1 2 cbr 210 ------- 6 1.0 2.0 40 40
+ 0.0546 1 2 cbr 210 ------- 6 1.0 2.0 65 65
- 0.0546 1 2 cbr 210 ------- 6 1.0 2.0 65 65
r 0.054608 1 2 cbr 210 ------- 6 1.0 2.0 41 41
+ 0.05544 1 2 cbr 210 ------- 6 1.0 2.0 66 66
- 0.05544 1 2 cbr 210 ------- 6 1.0 2.0 66 66
r 0.055448 1 2 cbr 210 ------- 6 1.0 2.0 42 42
+ 0.05628 1 2 cbr 210 ------- 6 1.0 2.0 67 67
- 0.05628 1 2 cbr 210 ------- 6 1.0 2.0 67 67
r 0.056288 1 2 cbr 210 ------- 6 1.0 2.0 43 43
+ 0.05712 1 2 cbr 210 ------- 6 1.0 2.0 68 68
- 0.05712 1 2 cbr 210 ------- 6 1.0 2.0 68 68
r 0.057128 1 2 cbr 210 ------- 6 1.0 2.0 44 44
+ 0.05796 1 2 cbr 210 ------- 6 1.0 2.0 69 69
- 0.05796 1 2 cbr 210 ------- 6 1.0 2.0 69 69
r 0.057968 1 2 cbr 210 ------- 6 1.0 2.0 45 45
+ 0.0588 1 2 cbr 210 ------- 6 1.0 2.0 70 70
- 0.0588 1 2 cbr 210 ------- 6 1.0 2.0 70 70
r 0.058808 1 2 cbr 210 ------- 6 1.0 2.0 46 46
+ 0.05964 1 2 cbr 210 ------- 6 1.0 2.0 71 71
- 0.05964 1 2 cbr 210 ------- 6 1.0 2.0 71 71
r 0.059648 1 2 cbr 210 ------- 6 1.0 2.0 47 47
+ 0.06048 1 2 cbr 210 ------- 6 1.0 2.0 72 72
- 0.06048 1 2 cbr 210 ------- 6 1.0 2.0 72 72
r 0.060488 1 2 cbr 210 ------- 6 1.0 2.0 48 48
+ 0.06132 1 2 cbr 210 ------- 6 1.0 2.0 73 73
- 0.06132 1 2 cbr 210 ------- 6 1.0 2.0 73 73
r 0.061328 1 2 cbr 210 ------- 6 1.0 2.0 49 49
+ 0.06216 1 2 cbr 210 ------- 6 1.0 2.0 74 74
- 0.06216 1 2 cbr 210 ------- 6 1.0 2.0 74 74
r 0.062168 1 2 cbr 210 ------- 6 1.0 2.0 50 50
+ 0.063 1 2 cbr 210 ------- 6 1.0 2.0 75 75
- 0.063 1 2 cbr 210 ------- 6 1.0 2.0 75 75
r 0.063008 1 2 cbr 210 ------- 6 1.0 2.0 51 51
+ 0.06384 1 2 cbr 210 ------- 6 1.0 2.0 76 76
- 0.06384 1 2 cbr 210 ------- 6 1.0 2.0 76 76
r 0.063848 1 2 cbr 210 ------- 6 1.0 2.0 52 52
+ 0.06468 1 2 cbr 210 ------- 6 1.0 2.0 77 77
- 0.06468 1 2 cbr 210 ------- 6 1.0 2.0 77 77
r 0.064688 1 2 cbr 210 ------- 6 1.0 2.0 53 53
+ 0.06552 1 2 cbr 210 ------- 6 1.0 2.0 78 78
- 0.06552 1 2 cbr 210 ------- 6 1.0 2.0 78 78
r 0.065528 1 2 cbr 210 ------- 6 1.0 2.0 54 54
+ 0.06636 1 2 cbr 210 ------- 6 1.0 2.0 79 79
- 0.06636 1 2 cbr 210 ------- 6 1.0 2.0 79 79
r 0.066368 1 2 cbr 210 ------- 6 1.0 2.0 55 55
+ 0.0672 1 2 cbr 210 ------- 6 1.0 2.0 80 80
- 0.0672 1 2 cbr 210 ------- 6 1.0 2.0 80 80
r 0.067208 1 2 cbr 210 ------- 6 1.0 2.0 56 56
+ 0.06804 1 2 cbr 210 ------- 6 1.0 2.0 81 81
- 0.06804 1 2 cbr 210 ------- 6 1.0 2.0 81 81
r 0.068048 1 2 cbr 210 ------- 6 1.0 2.0 57 57
+ 0.06888 1 2 cbr 210 ------- 6 1.0 2.0 82 82
- 0.06888 1 2 cbr 210 ------- 6 1.0 2.0 82 82
r 0.068888 1 2 cbr 210 ------- 6 1.0 2.0 58 58
+ 0.06972 1 2 cbr 210 ------- 6 1.0 2.0 83 83
- 0.06972 1 2 cbr 210 ------- 6 1.0 2.0 83 83
r 0.069728 1 2 cbr 210 ------- 6 1.0 2.0 59 59
+ 0.07056 1 2 cbr 210 ------- 6 1.0 2.0 84 84
- 0.07056 1 2 cbr 210 ------- 6 1.0 2.0 84 84
r 0.070568 1 2 cbr 210 ------- 6 1.0 2.0 60 60
+ 0.0714 1 2 cbr 210 ------- 6 1.0 2.0 85 85
- 0.0714 1 2 cbr 210 ------- 6 1.0 2.0 85 85
r 0.071408 1 2 cbr 210 ------- 6 1.0 2.0 61 61
+ 0.07224 1 2 cbr 210 ------- 6 1.0 2.0 86 86
- 0.07224 1 2 cbr 210 ------- 6 1.0 2.0 86 86
r 0.072248 1 2 cbr 210 ------- 6 1.0 2.0 62 62
+ 0.07308 1 2 cbr 210 ------- 6 1.0 2.0 87 87
- 0.07308 1 2 cbr 210 ------- 6 1.0 2.0 87 87
r 0.073088 1 2 cbr 210 ------- 6 1.0 2.0 63 63
+ 0.07392 1 2 cbr 210 ------- 6 1.0 2.0 88 88
- 0.07392 1 2 cbr 210 ------- 6 1.0 2.0 88 88
r 0.073928 1 2 cbr 210 ------- 6 1.0 2.0 64 64
+ 0.07476 1 2 cbr 210 ------- 6 1.0 2.0 89 89
- 0.07476 1 2 cbr 210 ------- 6 1.0 2.0 89 89
r 0.074768 1 2 cbr 210 ------- 6 1.0 2.0 65 65
+ 0.0756 1 2 cbr 210 ------- 6 1.0 2.0 90 90
- 0.0756 1 2 cbr 210 ------- 6 1.0 2.0 90 90
r 0.075608 1 2 cbr 210 ------- 6 1.0 2.0 66 66
+ 0.07644 1 2 cbr 210 ------- 6 1.0 2.0 91 91
- 0.07644 1 2 cbr 210 ------- 6 1.0 2.0 91 91
r 0.076448 1 2 cbr 210 ------- 6 1.0 2.0 67 67
+ 0.07728 1 2 cbr 210 ------- 6 1.0 2.0 92 92
- 0.07728 1 2 cbr 210 ------- 6 1.0 2.0 92 92
r 0.077288 1 2 cbr 210 ------- 6 1.0 2.0 68 68
+ 0.07812 1 2 cbr 210 ------- 6 1.0 2.0 93 93
- 0.07812 1 2 cbr 210 ------- 6 1.0 2.0 93 93
r 0.078128 1 2 cbr 210 ------- 6 1.0 2.0 69 69
+ 0.07896 1 2 cbr 210 ------- 6 1.0 2.0 94 94
- 0.07896 1 2 cbr 210 ------- 6 1.0 2.0 94 94
r 0.078968 1 2 cbr 210 ------- 6 1.0 2.0 70 70
+ 0.0798 1 2 cbr 210 ------- 6 1.0 2.0 95 95
- 0.0798 1 2 cbr 210 ------- 6 1.0 2.0 95 95
r 0.079808 1 2 cbr 210 ------- 6 1.0 2.0 71 71
+ 0.08064 1 2 cbr 210 ------- 6 1.0 2.0 96 96
- 0.08064 1 2 cbr 210 ------- 6 1.0 2.0 96 96
r 0.080648 1 2 cbr 210 ------- 6 1.0 2.0 72 72
+ 0.08148 1 2 cbr 210 ------- 6 1.0 2.0 97 97
- 0.08148 1 2 cbr 210 ------- 6 1.0 2.0 97 97
r 0.081488 1 2 cbr 210 ------- 6 1.0 2.0 73 73
+ 0.08232 1 2 cbr 210 ------- 6 1.0 2.0 98 98
- 0.08232 1 2 cbr 210 ------- 6 1.0 2.0 98 98
r 0.082328 1 2 cbr 210 ------- 6 1.0 2.0 74 74
+ 0.08316 1 2 cbr 210 ------- 6 1.0 2.0 99 99
- 0.08316 1 2 cbr 210 ------- 6 1.0 2.0 99 99
r 0.083168 1 2 cbr 210 ------- 6 1.0 2.0 75 75
+ 0.084 1 2 cbr 210 ------- 6 1.0 2.0 100 100
- 0.084 1 2 cbr 210 ------- 6 1.0 2.0 100 100
r 0.084008 1 2 cbr 210 ------- 6 1.0 2.0 76 76
+ 0.08484 1 2 cbr 210 ------- 6 1.0 2.0 101 101
- 0.08484 1 2 cbr 210 ------- 6 1.0 2.0 101 101
r 0.084848 1 2 cbr 210 ------- 6 1.0 2.0 77 77
+ 0.08568 1 2 cbr 210 ------- 6 1.0 2.0 102 102
- 0.08568 1 2 cbr 210 ------- 6 1.0 2.0 102 102
r 0.085688 1 2 cbr 210 ------- 6 1.0 2.0 78 78
+ 0.08652 1 2 cbr 210 ------- 6 1.0 2.0 103 103
- 0.08652 1 2 cbr 210 ------- 6 1.0 2.0 103 103
r 0.086528 1 2 cbr 210 ------- 6 1.0 2.0 79 79
+ 0.08736 1 2 cbr 210 ------- 6 1.0 2.0 104 104
- 0.08736 1 2 cbr 210 ------- 6 1.0 2.0 104 104
r 0.087368 1 2 cbr 210 ------- 6 1.0 2.0 80 80
+ 0.0882 1 2 cbr 210 ------- 6 1.0 2.0 105 105
- 0.0882 1 2 cbr 210 ------- 6 1.0 2.0 105 105
r 0.088208 1 2 cbr 210 ------- 6 1.0 2.0 81 81
+ 0.08904 1 2 cbr 210 ------- 6 1.0 2.0 106 106
- 0.08904 1 2 cbr 210 ------- 6 1.0 2.0 106 106
r 0.089048 1 2 cbr 210 ------- 6 1.0 2.0 82 82
+ 0.08988 1 2 cbr 210 ------- 6 1.0 2.0 107 107
- 0.08988 1 2 cbr 210 ------- 6 1.0 2.0 107 107
r 0.089888 1 2 cbr 210 ------- 6 1.0 2.0 83 83
+ 0.09072 1 2 cbr 210 ------- 6 1.0 2.0 108 108
- 0.09072 1 2 cbr 210 ------- 6 1.0 2.0 108 108
r 0.090728 1 2 cbr 210 ------- 6 1.0 2.0 84 84
+ 0.09156 1 2 cbr 210 ------- 6 1.0 2.0 109 109
- 0.09156 1 2 cbr 210 ------- 6 1.0 2.0 109 109
r 0.091568 1 2 cbr 210 ------- 6 1.0 2.0 85 85
+ 0.0924 1 2 cbr 210 ------- 6 1.0 2.0 110 110
- 0.0924 1 2 cbr 210 ------- 6 1.0 2.0 110 110
r 0.092408 1 2 cbr 210 ------- 6 1.0 2.0 86 86
+ 0.09324 1 2 cbr 210 ------- 6 1.0 2.0 111 111
- 0.09324 1 2 cbr 210 ------- 6 1.0 2.0 111 111
r 0.093248 1 2 cbr 210 ------- 6 1.0 2.0 87 87
+ 0.09408 1 2 cbr 210 ------- 6 1.0 2.0 112 112
- 0.09408 1 2 cbr 210 ------- 6 1.0 2.0 112 112
r 0.094088 1 2 cbr 210 ------- 6 1.0 2.0 88 88
+ 0.09492 1 2 cbr 210 ------- 6 1.0 2.0 113 113
- 0.09492 1 2 cbr 210 ------- 6 1.0 2.0 113 113
r 0.094928 1 2 cbr 210 ------- 6 1.0 2.0 89 89
+ 0.09576 1 2 cbr 210 ------- 6 1.0 2.0 114 114
- 0.09576 1 2 cbr 210 ------- 6 1.0 2.0 114 114
r 0.095768 1 2 cbr 210 ------- 6 1.0 2.0 90 90
+ 0.0966 1 2 cbr 210 ------- 6 1.0 2.0 115 115
- 0.0966 1 2 cbr 210 ------- 6 1.0 2.0 115 115
r 0.096608 1 2 cbr 210 ------- 6 1.0 2.0 91 91
+ 0.09744 1 2 cbr 210 ------- 6 1.0 2.0 116 116
- 0.09744 1 2 cbr 210 ------- 6 1.0 2.0 116 116
r 0.097448 1 2 cbr 210 ------- 6 1.0 2.0 92 92
+ 0.09828 1 2 cbr 210 ------- 6 1.0 2.0 117 117
- 0.09828 1 2 cbr 210 ------- 6 1.0 2.0 117 117
r 0.098288 1 2 cbr 210 ------- 6 1.0 2.0 93 93
+ 0.09912 1 2 cbr 210 ------- 6 1.0 2.0 118 118
- 0.09912 1 2 cbr 210 ------- 6 1.0 2.0 118 118
r 0.099128 1 2 cbr 210 ------- 6 1.0 2.0 94 94
+ 0.09996 1 2 cbr 210 ------- 6 1.0 2.0 119 119
- 0.09996 1 2 cbr 210 ------- 6 1.0 2.0 119 119
r 0.099968 1 2 cbr 210 ------- 6 1.0 2.0 95 95
+ 0.1008 1 2 cbr 210 ------- 6 1.0 2.0 120 120
- 0.1008 1 2 cbr 210 ------- 6 1.0 2.0 120 120
r 0.100808 1 2 cbr 210 ------- 6 1.0 2.0 96 96
+ 0.10164 1 2 cbr 210 ------- 6 1.0 2.0 121 121
- 0.10164 1 2 cbr 210 ------- 6 1.0 2.0 121 121
r 0.101648 1 2 cbr 210 ------- 6 1.0 2.0 97 97
+ 0.10248 1 2 cbr 210 ------- 6 1.0 2.0 122 122
- 0.10248 1 2 cbr 210 ------- 6 1.0 2.0 122 122
r 0.102488 1 2 cbr 210 ------- 6 1.0 2.0 98 98
+ 0.10332 1 2 cbr 210 ------- 6 1.0 2.0 123 123
- 0.10332 1 2 cbr 210 ------- 6 1.0 2.0 123 123
r 0.103328 1 2 cbr 210 ------- 6 1.0 2.0 99 99
+ 0.10416 1 2 cbr 210 ------- 6 1.0 2.0 124 124
- 0.10416 1 2 cbr 210 ------- 6 1.0 2.0 124 124
r 0.104168 1 2 cbr 210 ------- 6 1.0 2.0 100 100
+ 0.105 1 2 cbr 210 ------- 6 1.0 2.0 125 125
- 0.105 1 2 cbr 210 ------- 6 1.0 2.0 125 125
r 0.105008 1 2 cbr 210 ------- 6 1.0 2.0 101 101
+ 0.10584 1 2 cbr 210 ------- 6 1.0 2.0 126 126
- 0.10584 1 2 cbr 210 ------- 6 1.0 2.0 126 126
r 0.105848 1 2 cbr 210 ------- 6 1.0 2.0 102 102
+ 0.10668 1 2 cbr 210 ------- 6 1.0 2.0 127 127
- 0.10668 1 2 cbr 210 ------- 6 1.0 2.0 127 127
r 0.106688 1 2 cbr 210 ------- 6 1.0 2.0 103 103
+ 0.10752 1 2 cbr 210 ------- 6 1.0 2.0 128 128
- 0.10752 1 2 cbr 210 ------- 6 1.0 2.0 128 128
r 0.107528 1 2 cbr 210 ------- 6 1.0 2.0 104 104
+ 0.10836 1 2 cbr 210 ------- 6 1.0 2.0 129 129
- 0.10836 1 2 cbr 210 ------- 6 1.0 2.0 129 129
r 0.108368 1 2 cbr 210 ------- 6 1.0 2.0 105 105
+ 0.1092 1 2 cbr 210 ------- 6 1.0 2.0 130 130
- 0.1092 1 2 cbr 210 ------- 6 1.0 2.0 130 130
r 0.109208 1 2 cbr 210 ------- 6 1.0 2.0 106 106
+ 0.11004 1 2 cbr 210 ------- 6 1.0 2.0 131 131
- 0.11004 1 2 cbr 210 ------- 6 1.0 2.0 131 131
r 0.110048 1 2 cbr 210 ------- 6 1.0 2.0 107 107
+ 0.11088 1 2 cbr 210 ------- 6 1.0 2.0 132 132
- 0.11088 1 2 cbr 210 ------- 6 1.0 2.0 132 132
r 0.110888 1 2 cbr 210 ------- 6 1.0 2.0 108 108
+ 0.11172 1 2 cbr 210 ------- 6 1.0 2.0 133 133
- 0.11172 1 2 cbr 210 ------- 6 1.0 2.0 133 133
r 0.111728 1 2 cbr 210 ------- 6 1.0 2.0 109 109
+ 0.11256 1 2 cbr 210 ------- 6 1.0 2.0 134 134
- 0.11256 1 2 cbr 210 ------- 6 1.0 2.0 134 134
r 0.112568 1 2 cbr 210 ------- 6 1.0 2.0 110 110
+ 0.1134 1 2 cbr 210 ------- 6 1.0 2.0 135 135
- 0.1134 1 2 cbr 210 ------- 6 1.0 2.0 135 135
r 0.113408 1 2 cbr 210 ------- 6 1.0 2.0 111 111
+ 0.11424 1 2 cbr 210 ------- 6 1.0 2.0 136 136
- 0.11424 1 2 cbr 210 ------- 6 1.0 2.0 136 136
r 0.114248 1 2 cbr 210 ------- 6 1.0 2.0 112 112
+ 0.11508 1 2 cbr 210 ------- 6 1.0 2.0 137 137
- 0.11508 1 2 cbr 210 ------- 6 1.0 2.0 137 137
r 0.115088 1 2 cbr 210 ------- 6 1.0 2.0 113 113
+ 0.11592 1 2 cbr 210 ------- 6 1.0 2.0 138 138
- 0.11592 1 2 cbr 210 ------- 6 1.0 2.0 138 138
r 0.115928 1 2 cbr 210 ------- 6 1.0 2.0 114 114
+ 0.11676 1 2 cbr 210 ------- 6 1.0 2.0 139 139
- 0.11676 1 2 cbr 210 ------- 6 1.0 2.0 139 139
r 0.116768 1 2 cbr 210 ------- 6 1.0 2.0 115 115
+ 0.1176 1 2 cbr 210 ------- 6 1.0 2.0 140 140
- 0.1176 1 2 cbr 210 ------- 6 1.0 2.0 140 140
r 0.117608 1 2 cbr 210 ------- 6 1.0 2.0 116 116
+ 0.11844 1 2 cbr 210 ------- 6 1.0 2.0 141 141
- 0.11844 1 2 cbr 210 ------- 6 1.0 2.0 141 141
r 0.118448 1 2 cbr 210 ------- 6 1.0 2.0 117 117
+ 0.11928 1 2 cbr 210 ------- 6 1.0 2.0 142 142
- 0.11928 1 2 cbr 210 ------- 6 1.0 2.0 142 142
r 0.119288 1 2 cbr 210 ------- 6 1.0 2.0 118 118
+ 0.12012 1 2 cbr 210 ------- 6 1.0 2.0 143 143
- 0.12012 1 2 cbr 210 ------- 6 1.0 2.0 143 143
r 0.120128 1 2 cbr 210 ------- 6 1.0 2.0 119 119
+ 0.12096 1 2 cbr 210 ------- 6 1.0 2.0 144 144
- 0.12096 1 2 cbr 210 ------- 6 1.0 2.0 144 144
r 0.120968 1 2 cbr 210 ------- 6 1.0 2.0 120 120
+ 0.1218 1 2 cbr 210 ------- 6 1.0 2.0 145 145
- 0.1218 1 2 cbr 210 ------- 6 1.0 2.0 145 145
r 0.121808 1 2 cbr 210 ------- 6 1.0 2.0 121 121
+ 0.12264 1 2 cbr 210 ------- 6 1.0 2.0 146 146
- 0.12264 1 2 cbr 210 ------- 6 1.0 2.0 146 146
r 0.122648 1 2 cbr 210 ------- 6 1.0 2.0 122 122
+ 0.12348 1 2 cbr 210 ------- 6 1.0 2.0 147 147
- 0.12348 1 2 cbr 210 ------- 6 1.0 2.0 147 147
r 0.123488 1 2 cbr 210 ------- 6 1.0 2.0 123 123
+ 0.12432 1 2 cbr 210 ------- 6 1.0 2.0 148 148
- 0.12432 1 2 cbr 210 ------- 6 1.0 2.0 148 148
r 0.124328 1 2 cbr 210 ------- 6 1.0 2.0 124 124
+ 0.12516 1 2 cbr 210 ------- 6 1.0 2.0 149 149
- 0.12516 1 2 cbr 210 ------- 6 1.0 2.0 149 149
r 0.125168 1 2 cbr 210 ------- 6 1.0 2.0 125 125
+ 0.126 1 2 cbr 210 ------- 6 1.0 2.0 150 150
- 0.126 1 2 cbr 210 ------- 6 1.0 2.0 150 150
r 0.126008 1 2 cbr 210 ------- 6 1.0 2.0 126 126
+ 0.12684 1 2 cbr 210 ------- 6 1.0 2.0 151 151
- 0.12684 1 2 cbr 210 ------- 6 1.0 2.0 151 151
r 0.126848 1 2 cbr 210 ------- 6 1.0 2.0 127 127
+ 0.12768 1 2 cbr 210 ------- 6 1.0 2.0 152 152
- 0.12768 1 2 cbr 210 ------- 6 1.0 2.0 152 152
r 0.127688 1 2 cbr 210 ------- 6 1.0 2.0 128 128
+ 0.12852 1 2 cbr 210 ------- 6 1.0 2.0 153 153
- 0.12852 1 2 cbr 210 ------- 6 1.0 2.0 153 153
r 0.128528 1 2 cbr 210 ------- 6 1.0 2.0 129 129
+ 0.12936 1 2 cbr 210 ------- 6 1.0 2.0 154 154
- 0.12936 1 2 cbr 210 ------- 6 1.0 2.0 154 154
r 0.129368 1 2 cbr 210 ------- 6 1.0 2.0 130 130
+ 0.1302 1 2 cbr 210 ------- 6 1.0 2.0 155 155
- 0.1302 1 2 cbr 210 ------- 6 1.0 2.0 155 155
r 0.130208 1 2 cbr 210 ------- 6 1.0 2.0 131 131
+ 0.13104 1 2 cbr 210 ------- 6 1.0 2.0 156 156
- 0.13104 1 2 cbr 210 ------- 6 1.0 2.0 156 156
r 0.131048 1 2 cbr 210 ------- 6 1.0 2.0 132 132
+ 0.13188 1 2 cbr 210 ------- 6 1.0 2.0 157 157
- 0.13188 1 2 cbr 210 ------- 6 1.0 2.0 157 157
r 0.131888 1 2 cbr 210 ------- 6 1.0 2.0 133 133
+ 0.13272 1 2 cbr 210 ------- 6 1.0 2.0 158 158
- 0.13272 1 2 cbr 210 ------- 6 1.0 2.0 158 158
r 0.132728 1 2 cbr 210 ------- 6 1.0 2.0 134 134
+ 0.13356 1 2 cbr 210 ------- 6 1.0 2.0 159 159
- 0.13356 1 2 cbr 210 ------- 6 1.0 2.0 159 159
r 0.133568 1 2 cbr 210 ------- 6 1.0 2.0 135 135
+ 0.1344 1 2 cbr 210 ------- 6 1.0 2.0 160 160
- 0.1344 1 2 cbr 210 ------- 6 1.0 2.0 160 160
r 0.134408 1 2 cbr 210 ------- 6 1.0 2.0 136 136
+ 0.13524 1 2 cbr 210 ------- 6 1.0 2.0 161 161
- 0.13524 1 2 cbr 210 ------- 6 1.0 2.0 161 161
r 0.135248 1 2 cbr 210 ------- 6 1.0 2.0 137 137
+ 0.13608 1 2 cbr 210 ------- 6 1.0 2.0 162 162
- 0.13608 1 2 cbr 210 ------- 6 1.0 2.0 162 162
r 0.136088 1 2 cbr 210 ------- 6 1.0 2.0 138 138
+ 0.13692 1 2 cbr 210 ------- 6 1.0 2.0 163 163
- 0.13692 1 2 cbr 210 ------- 6 1.0 2.0 163 163
r 0.136928 1 2 cbr 210 ------- 6 1.0 2.0 139 139
+ 0.13776 1 2 cbr 210 ------- 6 1.0 2.0 164 164
- 0.13776 1 2 cbr 210 ------- 6 1.0 2.0 164 164
r 0.137768 1 2 cbr 210 ------- 6 1.0 2.0 140 140
+ 0.1386 1 2 cbr 210 ------- 6 1.0 2.0 165 165
- 0.1386 1 2 cbr 210 ------- 6 1.0 2.0 165 165
r 0.138608 1 2 cbr 210 ------- 6 1.0 2.0 141 141
+ 0.13944 1 2 cbr 210 ------- 6 1.0 2.0 166 166
- 0.13944 1 2 cbr 210 ------- 6 1.0 2.0 166 166
r 0.139448 1 2 cbr 210 ------- 6 1.0 2.0 142 142
+ 0.14028 1 2 cbr 210 ------- 6 1.0 2.0 167 167
- 0.14028 1 2 cbr 210 ------- 6 1.0 2.0 167 167
r 0.140288 1 2 cbr 210 ------- 6 1.0 2.0 143 143
+ 0.14112 1 2 cbr 210 ------- 6 1.0 2.0 168 168
- 0.14112 1 2 cbr 210 ------- 6 1.0 2.0 168 168
r 0.141128 1 2 cbr 210 ------- 6 1.0 2.0 144 144
+ 0.14196 1 2 cbr 210 ------- 6 1.0 2.0 169 169
- 0.14196 1 2 cbr 210 ------- 6 1.0 2.0 169 169
r 0.141968 1 2 cbr 210 ------- 6 1.0 2.0 145 145
+ 0.1428 1 2 cbr 210 ------- 6 1.0 2.0 170 170
- 0.1428 1 2 cbr 210 ------- 6 1.0 2.0 170 170
r 0.142808 1 2 cbr 210 ------- 6 1.0 2.0 146 146
+ 0.14364 1 2 cbr 210 ------- 6 1.0 2.0 171 171
- 0.14364 1 2 cbr 210 ------- 6 1.0 2.0 171 171
r 0.143648 1 2 cbr 210 ------- 6 1.0 2.0 147 147
+ 0.14448 1 2 cbr 210 ------- 6 1.0 2.0 172 172
- 0.14448 1 2 cbr 210 ------- 6 1.0 2.0 172 172
r 0.144488 1 2 cbr 210 ------- 6 1.0 2.0 148 148
+ 0.14532 1 2 cbr 210 ------- 6 1.0 2.0 173 173
- 0.14532 1 2 cbr 210 ------- 6 1.0 2.0 173 173
r 0.145328 1 2 cbr 210 ------- 6 1.0 2.0 149 149
+ 0.14616 1 2 cbr 210 ------- 6 1.0 2.0 174 174
- 0.14616 1 2 cbr 210 ------- 6 1.0 2.0 174 174
r 0.146168 1 2 cbr 210 ------- 6 1.0 2.0 150 150
+ 0.147 1 2 cbr 210 ------- 6 1.0 2.0 175 175
- 0.147 1 2 cbr 210 ------- 6 1.0 2.0 175 175
r 0.147008 1 2 cbr 210 ------- 6 1.0 2.0 151 151
+ 0.14784 1 2 cbr 210 ------- 6 1.0 2.0 176 176
- 0.14784 1 2 cbr 210 ------- 6 1.0 2.0 176 176
r 0.147848 1 2 cbr 210 ------- 6 1.0 2.0 152 152
+ 0.14868 1 2 cbr 210 ------- 6 1.0 2.0 177 177
- 0.14868 1 2 cbr 210 ------- 6 1.0 2.0 177 177
r 0.148688 1 2 cbr 210 ------- 6 1.0 2.0 153 153
+ 0.14952 1 2 cbr 210 ------- 6 1.0 2.0 178 178
- 0.14952 1 2 cbr 210 ------- 6 1.0 2.0 178 178
r 0.149528 1 2 cbr 210 ------- 6 1.0 2.0 154 154
+ 0.15036 1 2 cbr 210 ------- 6 1.0 2.0 179 179
- 0.15036 1 2 cbr 210 ------- 6 1.0 2.0 179 179
r 0.150368 1 2 cbr 210 ------- 6 1.0 2.0 155 155
+ 0.1512 1 2 cbr 210 ------- 6 1.0 2.0 180 180
- 0.1512 1 2 cbr 210 ------- 6 1.0 2.0 180 180
r 0.151208 1 2 cbr 210 ------- 6 1.0 2.0 156 156
+ 0.15204 1 2 cbr 210 ------- 6 1.0 2.0 181 181
- 0.15204 1 2 cbr 210 ------- 6 1.0 2.0 181 181
r 0.152048 1 2 cbr 210 ------- 6 1.0 2.0 157 157
+ 0.15288 1 2 cbr 210 ------- 6 1.0 2.0 182 182
- 0.15288 1 2 cbr 210 ------- 6 1.0 2.0 182 182
r 0.152888 1 2 cbr 210 ------- 6 1.0 2.0 158 158
+ 0.15372 1 2 cbr 210 ------- 6 1.0 2.0 183 183
- 0.15372 1 2 cbr 210 ------- 6 1.0 2.0 183 183
r 0.153728 1 2 cbr 210 ------- 6 1.0 2.0 159 159
+ 0.15456 1 2 cbr 210 ------- 6 1.0 2.0 184 184
- 0.15456 1 2 cbr 210 ------- 6 1.0 2.0 184 184
r 0.154568 1 2 cbr 210 ------- 6 1.0 2.0 160 160
+ 0.1554 1 2 cbr 210 ------- 6 1.0 2.0 185 185
- 0.1554 1 2 cbr 210 ------- 6 1.0 2.0 185 185
r 0.155408 1 2 cbr 210 ------- 6 1.0 2.0 161 161
+ 0.15624 1 2 cbr 210 ------- 6 1.0 2.0 186 186
- 0.15624 1 2 cbr 210 ------- 6 1.0 2.0 186 186
r 0.156248 1 2 cbr 210 ------- 6 1.0 2.0 162 162
+ 0.15708 1 2 cbr 210 ------- 6 1.0 2.0 187 187
- 0.15708 1 2 cbr 210 ------- 6 1.0 2.0 187 187
r 0.157088 1 2 cbr 210 ------- 6 1.0 2.0 163 163
+ 0.15792 1 2 cbr 210 ------- 6 1.0 2.0 188 188
- 0.15792 1 2 cbr 210 ------- 6 1.0 2.0 188 188
r 0.157928 1 2 cbr 210 ------- 6 1.0 2.0 164 164
+ 0.15876 1 2 cbr 210 ------- 6 1.0 2.0 189 189
- 0.15876 1 2 cbr 210 ------- 6 1.0 2.0 189 189
r 0.158768 1 2 cbr 210 ------- 6 1.0 2.0 165 165
+ 0.1596 1 2 cbr 210 ------- 6 1.0 2.0 190 190
- 0.1596 1 2 cbr 210 ------- 6 1.0 2.0 190 190
r 0.159608 1 2 cbr 210 ------- 6 1.0 2.0 166 166
+ 0.16044 1 2 cbr 210 ------- 6 1.0 2.0 191 191
- 0.16044 1 2 cbr 210 ------- 6 1.0 2.0 191 191
r 0.160448 1 2 cbr 210 ------- 6 1.0 2.0 167 167
+ 0.16128 1 2 cbr 210 ------- 6 1.0 2.0 192 192
- 0.16128 1 2 cbr 210 ------- 6 1.0 2.0 192 192
r 0.161288 1 2 cbr 210 ------- 6 1.0 2.0 168 168
+ 0.16212 1 2 cbr 210 ------- 6 1.0 2.0 193 193
- 0.16212 1 2 cbr 210 ------- 6 1.0 2.0 193 193
r 0.162128 1 2 cbr 210 ------- 6 1.0 2.0 169 169
+ 0.16296 1 2 cbr 210 ------- 6 1.0 2.0 194 194
- 0.16296 1 2 cbr 210 ------- 6 1.0 2.0 194 194
r 0.162968 1 2 cbr 210 ------- 6 1.0 2.0 170 170
+ 0.1638 1 2 cbr 210 ------- 6 1.0 2.0 195 195
- 0.1638 1 2 cbr 210 ------- 6 1.0 2.0 195 195
r 0.163808 1 2 cbr 210 ------- 6 1.0 2.0 171 171
+ 0.16464 1 2 cbr 210 ------- 6 1.0 2.0 196 196
- 0.16464 1 2 cbr 210 ------- 6 1.0 2.0 196 196
r 0.164648 1 2 cbr 210 ------- 6 1.0 2.0 172 172
+ 0.16548 1 2 cbr 210 ------- 6 1.0 2.0 197 197
- 0.16548 1 2 cbr 210 ------- 6 1.0 2.0 197 197
r 0.165488 1 2 cbr 210 ------- 6 1.0 2.0 173 173
+ 0.16632 1 2 cbr 210 ------- 6 1.0 2.0 198 198
- 0.16632 1 2 cbr 210 ------- 6 1.0 2.0 198 198
r 0.166328 1 2 cbr 210 ------- 6 1.0 2.0 174 174
+ 0.16716 1 2 cbr 210 ------- 6 1.0 2.0 199 199
- 0.16716 1 2 cbr 210 ------- 6 1.0 2.0 199 199
r 0.167168 1 2 cbr 210 ------- 6 1.0 2.0 175 175
+ 0.168 1 2 cbr 210 ------- 6 1.0 2.0 200 200
- 0.168 1 2 cbr 210 ------- 6 1.0 2.0 200 200
r 0.168008 1 2 cbr 210 ------- 6 1.0 2.0 176 176
+ 0.16884 1 2 cbr 210 ------- 6 1.0 2.0 201 201
- 0.16884 1 2 cbr 210 ------- 6 1.0 2.0 201 201
r 0.168848 1 2 cbr 210 ------- 6 1.0 2.0 177 177
+ 0.16968 1 2 cbr 210 ------- 6 1.0 2.0 202 202
- 0.16968 1 2 cbr 210 ------- 6 1.0 2.0 202 202
r 0.169688 1 2 cbr 210 ------- 6 1.0 2.0 178 178
+ 0.17052 1 2 cbr 210 ------- 6 1.0 2.0 203 203
- 0.17052 1 2 cbr 210 ------- 6 1.0 2.0 203 203
r 0.170528 1 2 cbr 210 ------- 6 1.0 2.0 179 179
+ 0.17136 1 2 cbr 210 ------- 6 1.0 2.0 204 204
- 0.17136 1 2 cbr 210 ------- 6 1.0 2.0 204 204
r 0.171368 1 2 cbr 210 ------- 6 1.0 2.0 180 180
+ 0.1722 1 2 cbr 210 ------- 6 1.0 2.0 205 205
- 0.1722 1 2 cbr 210 ------- 6 1.0 2.0 205 205
r 0.172208 1 2 cbr 210 ------- 6 1.0 2.0 181 181
+ 0.17304 1 2 cbr 210 ------- 6 1.0 2.0 206 206
- 0.17304 1 2 cbr 210 ------- 6 1.0 2.0 206 206
r 0.173048 1 2 cbr 210 ------- 6 1.0 2.0 182 182
+ 0.17388 1 2 cbr 210 ------- 6 1.0 2.0 207 207
- 0.17388 1 2 cbr 210 ------- 6 1.0 2.0 207 207
r 0.173888 1 2 cbr 210 ------- 6 1.0 2.0 183 183
+ 0.17472 1 2 cbr 210 ------- 6 1.0 2.0 208 208
- 0.17472 1 2 cbr 210 ------- 6 1.0 2.0 208 208
r 0.174728 1 2 cbr 210 ------- 6 1.0 2.0 184 184
+ 0.17556 1 2 cbr 210 ------- 6 1.0 2.0 209 209
- 0.17556 1 2 cbr 210 ------- 6 1.0 2.0 209 209
r 0.175568 1 2 cbr 210 ------- 6 1.0 2.0 185 185
+ 0.1764 1 2 cbr 210 ------- 6 1.0 2.0 210 210
- 0.1764 1 2 cbr 210 ------- 6 1.0 2.0 210 210
r 0.176408 1 2 cbr 210 ------- 6 1.0 2.0 186 186
+ 0.17724 1 2 cbr 210 ------- 6 1.0 2.0 211 211
- 0.17724 1 2 cbr 210 ------- 6 1.0 2.0 211 211
r 0.177248 1 2 cbr 210 ------- 6 1.0 2.0 187 187
+ 0.17808 1 2 cbr 210 ------- 6 1.0 2.0 212 212
- 0.17808 1 2 cbr 210 ------- 6 1.0 2.0 212 212
r 0.178088 1 2 cbr 210 ------- 6 1.0 2.0 188 188
+ 0.17892 1 2 cbr 210 ------- 6 1.0 2.0 213 213
- 0.17892 1 2 cbr 210 ------- 6 1.0 2.0 213 213
r 0.178928 1 2 cbr 210 ------- 6 1.0 2.0 189 189
+ 0.17976 1 2 cbr 210 ------- 6 1.0 2.0 214 214
- 0.17976 1 2 cbr 210 ------- 6 1.0 2.0 214 214
r 0.179768 1 2 cbr 210 ------- 6 1.0 2.0 190 190
+ 0.1806 1 2 cbr 210 ------- 6 1.0 2.0 215 215
- 0.1806 1 2 cbr 210 ------- 6 1.0 2.0 215 215
r 0.180608 1 2 cbr 210 ------- 6 1.0 2.0 191 191
+ 0.18144 1 2 cbr 210 ------- 6 1.0 2.0 216 216
- 0.18144 1 2 cbr 210 ------- 6 1.0 2.0 216 216
r 0.181448 1 2 cbr 210 ------- 6 1.0 2.0 192 192
+ 0.18228 1 2 cbr 210 ------- 6 1.0 2.0 217 217
- 0.18228 1 2 cbr 210 ------- 6 1.0 2.0 217 217
r 0.182288 1 2 cbr 210 ------- 6 1.0 2.0 193 193
+ 0.18312 1 2 cbr 210 ------- 6 1.0 2.0 218 218
- 0.18312 1 2 cbr 210 ------- 6 1.0 2.0 218 218
r 0.183128 1 2 cbr 210 ------- 6 1.0 2.0 194 194
+ 0.18396 1 2 cbr 210 ------- 6 1.0 2.0 219 219
- 0.18396 1 2 cbr 210 ------- 6 1.0 2.0 219 219
r 0.183968 1 2 cbr 210 ------- 6 1.0 2.0 195 195
+ 0.1848 1 2 cbr 210 ------- 6 1.0 2.0 220 220