+ 0 1 2 cbr 210 ------- 6 1.0 2.0 0 0
- 0 1 2 cbr 210 ------- 6 1.0 2.0 0 0
+ 0.00048 1 2 cbr 210 ------- 6 1.0 2.0 1 1
- 0.00048 1 2 cbr 210 ------- 6 1.0 2.0 1 1
+ 0.00096 1 2 cbr 210 ------- 6 1.0 2.0 2 2
- 0.00096 1 2 cbr 210 ------- 6 1.0 2.0 2 2
+ 0.00144 1 2 cbr 210 ------- 6 1.0 2.0 3 3
- 0.00144 1 2 cbr 210 ------- 6 1.0 2.0 3 3
+ 0.00192 1 2 cbr 210 ------- 6 1.0 2.0 4 4
- 0.00192 1 2 cbr 210 ------- 6 1.0 2.0 4 4
+ 0.0024 1 2 cbr 210 ------- 6 1.0 2.0 5 5
- 0.0024 1 2 cbr 210 ------- 6 1.0 2.0 5 5
+ 0.00288 1 2 cbr 210 ------- 6 1.0 2.0 6 6
- 0.00288 1 2 cbr 210 ------- 6 1.0 2.0 6 6
+ 0.00336 1 2 cbr 210 ------- 6 1.0 2.0 7 7
- 0.00336 1 2 cbr 210 ------- 6 1.0 2.0 7 7
+ 0.00384 1 2 cbr 210 ------- 6 1.0 2.0 8 8
- 0.00384 1 2 cbr 210 ------- 6 1.0 2.0 8 8
+ 0.00432 1 2 cbr 210 ------- 6 1.0 2.0 9 9
- 0.00432 1 2 cbr 210 ------- 6 1.0 2.0 9 9
+ 0.0048 1 2 cbr 210 ------- 6 1.0 2.0 10 10
- 0.0048 1 2 cbr 210 ------- 6 1.0 2.0 10 10
+ 0.00528 1 2 cbr 210 ------- 6 1.0 2.0 11 11
- 0.00528 1 2 cbr 210 ------- 6 1.0 2.0 11 11
+ 0.00576 1 2 cbr 210 ------- 6 1.0 2.0 12 12
- 0.00576 1 2 cbr 210 ------- 6 1.0 2.0 12 12
+ 0.00624 1 2 cbr 210 ------- 6 1.0 2.0 13 13
- 0.00624 1 2 cbr 210 ------- 6 1.0 2.0 13 13
+ 0.00672 1 2 cbr 210 ------- 6 1.0 2.0 14 14
- 0.00672 1 2 cbr 210 ------- 6 1.0 2.0 14 14
+ 0.0072 1 2 cbr 210 ------- 6 1.0 2.0 15 15
- 0.0072 1 2 cbr 210 ------- 6 1.0 2.0 15 15
+ 0.00768 1 2 cbr 210 ------- 6 1.0 2.0 16 16
- 0.00768 1 2 cbr 210 ------- 6 1.0 2.0 16 16
+ 0.00816 1 2 cbr 210 ------- 6 1.0 2.0 17 17
- 0.00816 1 2 cbr 210 ------- 6 1.0 2.0 17 17
+ 0.00864 1 2 cbr 210 ------- 6 1.0 2.0 18 18
- 0.00864 1 2 cbr 210 ------- 6 1.0 2.0 18 18
+ 0.00912 1 2 cbr 210 ------- 6 1.0 2.0 19 19
- 0.00912 1 2 cbr 210 ------- 6 1.0 2.0 19 19
+ 0.0096 1 2 cbr 210 ------- 6 1.0 2.0 20 20
- 0.0096 1 2 cbr 210 ------- 6 1.0 2.0 20 20
+ 0.01008 1 2 cbr 210 ------- 6 1.0 2.0 21 21
- 0.01008 1 2 cbr 210 ------- 6 1.0 2.0 21 21
+ 0.01056 1 2 cbr 210 ------- 6 1.0 2.0 22 22
- 0.01056 1 2 cbr 210 ------- 6 1.0 2.0 22 22
+ 0.01104 1 2 cbr 210 ------- 6 1.0 2.0 23 23
- 0.01104 1 2 cbr 210 ------- 6 1.0 2.0 23 23
+ 0.01152 1 2 cbr 210 ------- 6 1.0 2.0 24 24
- 0.01152 1 2 cbr 210 ------- 6 1.0 2.0 24 24
+ 0.012 1 2 cbr 210 ------- 6 1.0 2.0 25 25
- 0.012 1 2 cbr 210 ------- 6 1.0 2.0 25 25
+ 0.01248 1 2 cbr 210 ------- 6 1.0 2.0 26 26
- 0.01248 1 2 cbr 210 ------- 6 1.0 2.0 26 26
+ 0.01296 1 2 cbr 210 ------- 6 1.0 2.0 27 27
- 0.01296 1 2 cbr 210 ------- 6 1.0 2.0 27 27
+ 0.01344 1 2 cbr 210 ------- 6 1.0 2.0 28 28
- 0.01344 1 2 cbr 210 ------- 6 1.0 2.0 28 28
+ 0.01392 1 2 cbr 210 ------- 6 1.0 2.0 29 29
- 0.01392 1 2 cbr 210 ------- 6 1.0 2.0 29 29
+ 0.0144 1 2 cbr 210 ------- 6 1.0 2.0 30 30
- 0.0144 1 2 cbr 210 ------- 6 1.0 2.0 30 30
+ 0.01488 1 2 cbr 210 ------- 6 1.0 2.0 31 31
- 0.01488 1 2 cbr 210 ------- 6 1.0 2.0 31 31
+ 0.01536 1 2 cbr 210 ------- 6 1.0 2.0 32 32
- 0.01536 1 2 cbr 210 ------- 6 1.0 2.0 32 32
+ 0.01584 1 2 cbr 210 ------- 6 1.0 2.0 33 33
- 0.01584 1 2 cbr 210 ------- 6 1.0 2.0 33 33
+ 0.01632 1 2 cbr 210 ------- 6 1.0 2.0 34 34
- 0.01632 1 2 cbr 210 ------- 6 1.0 2.0 34 34
+ 0.0168 1 2 cbr 210 ------- 6 1.0 2.0 35 35
- 0.0168 1 2 cbr 210 ------- 6 1.0 2.0 35 35
+ 0.01728 1 2 cbr 210 ------- 6 1.0 2.0 36 36
- 0.01728 1 2 cbr 210 ------- 6 1.0 2.0 36 36
+ 0.01776 1 2 cbr 210 ------- 6 1.0 2.0 37 37
- 0.01776 1 2 cbr 210 ------- 6 1.0 2.0 37 37
+ 0.01824 1 2 cbr 210 ------- 6 1.0 2.0 38 38
- 0.01824 1 2 cbr 210 ------- 6 1.0 2.0 38 38
+ 0.01872 1 2 cbr 210 ------- 6 1.0 2.0 39 39
- 0.01872 1 2 cbr 210 ------- 6 1.0 2.0 39 39
+ 0.0192 1 2 cbr 210 ------- 6 1.0 2.0 40 40
- 0.0192 1 2 cbr 210 ------- 6 1.0 2.0 40 40
+ 0.01968 1 2 cbr 210 ------- 6 1.0 2.0 41 41
- 0.01968 1 2 cbr 210 ------- 6 1.0 2.0 41 41
+ 0.02016 1 2 cbr 210 ------- 6 1.0 2.0 42 42
- 0.02016 1 2 cbr 210 ------- 6 1.0 2.0 42 42
r 0.020168 1 2 cbr 210 ------- 6 1.0 2.0 0 0
+ 0.02064 1 2 cbr 210 ------- 6 1.0 2.0 43 43
- 0.02064 1 2 cbr 210 ------- 6 1.0 2.0 43 43
r 0.020648 1 2 cbr 210 ------- 6 1.0 2.0 1 1
+ 0.02112 1 2 cbr 210 ------- 6 1.0 2.0 44 44
- 0.02112 1 2 cbr 210 ------- 6 1.0 2.0 44 44
r 0.021128 1 2 cbr 210 ------- 6 1.0 2.0 2 2
+ 0.0216 1 2 cbr 210 ------- 6 1.0 2.0 45 45
- 0.0216 1 2 cbr 210 ------- 6 1.0 2.0 45 45
r 0.021608 1 2 cbr 210 ------- 6 1.0 2.0 3 3
+ 0.02208 1 2 cbr 210 ------- 6 1.0 2.0 46 46
- 0.02208 1 2 cbr 210 ------- 6 1.0 2.0 46 46
r 0.022088 1 2 cbr 210 ------- 6 1.0 2.0 4 4
+ 0.02256 1 2 cbr 210 ------- 6 1.0 2.0 47 47
- 0.02256 1 2 cbr 210 ------- 6 1.0 2.0 47 47
r 0.022568 1 2 cbr 210 ------- 6 1.0 2.0 5 5
+ 0.02304 1 2 cbr 210 ------- 6 1.0 2.0 48 48
- 0.02304 1 2 cbr 210 ------- 6 1.0 2.0 48 48
r 0.023048 1 2 cbr 210 ------- 6 1.0 2.0 6 6
+ 0.02352 1 2 cbr 210 ------- 6 1.0 2.0 49 49
- 0.02352 1 2 cbr 210 ------- 6 1.0 2.0 49 49
r 0.023528 1 2 cbr 210 ------- 6 1.0 2.0 7 7
+ 0.024 1 2 cbr 210 ------- 6 1.0 2.0 50 50
- 0.024 1 2 cbr 210 ------- 6 1.0 2.0 50 50
r 0.024008 1 2 cbr 210 ------- 6 1.0 2.0 8 8
+ 0.02448 1 2 cbr 210 ------- 6 1.0 2.0 51 51
- 0.02448 1 2 cbr 210 ------- 6 1.0 2.0 51 51
r 0.024488 1 2 cbr 210 ------- 6 1.0 2.0 9 9
+ 0.02496 1 2 cbr 210 ------- 6 1.0 2.0 52 52
- 0.02496 1 2 cbr 210 ------- 6 1.0 2.0 52 52
r 0.024968 1 2 cbr 210 ------- 6 1.0 2.0 10 10
+ 0.02544 1 2 cbr 210 ------- 6 1.0 2.0 53 53
- 0.02544 1 2 cbr 210 ------- 6 1.0 2.0 53 53
r 0.025448 1 2 cbr 210 ------- 6 1.0 2.0 11 11
+ 0.02592 1 2 cbr 210 ------- 6 1.0 2.0 54 54
- 0.02592 1 2 cbr 210 ------- 6 1.0 2.0 54 54
r 0.025928 1 2 cbr 210 ------- 6 1.0 2.0 12 12
+ 0.0264 1 2 cbr 210 ------- 6 1.0 2.0 55 55
- 0.0264 1 2 cbr 210 ------- 6 1.0 2.0 55 55
r 0.026408 1 2 cbr 210 ------- 6 1.0 2.0 13 13
+ 0.02688 1 2 cbr 210 ------- 6 1.0 2.0 56 56
- 0.02688 1 2 cbr 210 ------- 6 1.0 2.0 56 56
r 0.026888 1 2 cbr 210 ------- 6 1.0 2.0 14 14
+ 0.02736 1 2 cbr 210 ------- 6 1.0 2.0 57 57
- 0.02736 1 2 cbr 210 ------- 6 1.0 2.0 57 57
r 0.027368 1 2 cbr 210 ------- 6 1.0 2.0 15 15
+ 0.02784 1 2 cbr 210 ------- 6 1.0 2.0 58 58
- 0.02784 1 2 cbr 210 ------- 6 1.0 2.0 58 58
r 0.027848 1 2 cbr 210 ------- 6 1.0 2.0 16 16
+ 0.02832 1 2 cbr 210 ------- 6 1.0 2.0 59 59
- 0.02832 1 2 cbr 210 ------- 6 1.0 2.0 59 59
r 0.028328 1 2 cbr 210 ------- 6 1.0 2.0 17 17
+ 0.0288 1 2 cbr 210 ------- 6 1.0 2.0 60 60
- 0.0288 1 2 cbr 210 ------- 6 1.0 2.0 60 60
r 0.028808 1 2 cbr 210 ------- 6 1.0 2.0 18 18
+ 0.02928 1 2 cbr 210 ------- 6 1.0 2.0 61 61
- 0.02928 1 2 cbr 210 ------- 6 1.0 2.0 61 61
r 0.029288 1 2 cbr 210 ------- 6 1.0 2.0 19 19
+ 0.02976 1 2 cbr 210 ------- 6 1.0 2.0 62 62
- 0.02976 1 2 cbr 210 ------- 6 1.0 2.0 62 62
r 0.029768 1 2 cbr 210 ------- 6 1.0 2.0 20 20
+ 0.03024 1 2 cbr 210 ------- 6 1.0 2.0 63 63
- 0.03024 1 2 cbr 210 ------- 6 1.0 2.0 63 63
r 0.030248 1 2 cbr 210 ------- 6 1.0 2.0 21 21
+ 0.03072 1 2 cbr 210 ------- 6 1.0 2.0 64 64
- 0.03072 1 2 cbr 210 ------- 6 1.0 2.0 64 64
r 0.030728 1 2 cbr 210 ------- 6 1.0 2.0 22 22
+ 0.0312 1 2 cbr 210 ------- 6 1.0 2.0 65 65
- 0.0312 1 2 cbr 210 ------- 6 1.0 2.0 65 65
r 0.031208 1 2 cbr 210 ------- 6 1.0 2.0 23 23
+ 0.03168 1 2 cbr 210 ------- 6 1.0 2.0 66 66
- 0.03168 1 2 cbr 210 ------- 6 1.0 2.0 66 66
r 0.031688 1 2 cbr 210 ------- 6 1.0 2.0 24 24
+ 0.03216 1 2 cbr 210 ------- 6 1.0 2.0 67 67
- 0.03216 1 2 cbr 210 ------- 6 1.0 2.0 67 67
r 0.032168 1 2 cbr 210 ------- 6 1.0 2.0 25 25
+ 0.03264 1 2 cbr 210 ------- 6 1.0 2.0 68 68
- 0.03264 1 2 cbr 210 ------- 6 1.0 2.0 68 68
r 0.032648 1 2 cbr 210 ------- 6 1.0 2.0 26 26
+ 0.03312 1 2 cbr 210 ------- 6 1.0 2.0 69 69
- 0.03312 1 2 cbr 210 ------- 6 1.0 2.0 69 69
r 0.033128 1 2 cbr 210 ------- 6 1.0 2.0 27 27
+ 0.0336 1 2 cbr 210 ------- 6 1.0 2.0 70 70
- 0.0336 1 2 cbr 210 ------- 6 1.0 2.0 70 70
r 0.033608 1 2 cbr 210 ------- 6 1.0 2.0 28 28
+ 0.03408 1 2 cbr 210 ------- 6 1.0 2.0 71 71
- 0.03408 1 2 cbr 210 ------- 6 1.0 2.0 71 71
r 0.034088 1 2 cbr 210 ------- 6 1.0 2.0 29 29
+ 0.03456 1 2 cbr 210 ------- 6 1.0 2.0 72 72
- 0.03456 1 2 cbr 210 ------- 6 1.0 2.0 72 72
r 0.034568 1 2 cbr 210 ------- 6 1.0 2.0 30 30
+ 0.03504 1 2 cbr 210 ------- 6 1.0 2.0 73 73
- 0.03504 1 2 cbr 210 ------- 6 1.0 2.0 73 73
r 0.035048 1 2 cbr 210 ------- 6 1.0 2.0 31 31
+ 0.03552 1 2 cbr 210 ------- 6 1.0 2.0 74 74
- 0.03552 1 2 cbr 210 ------- 6 1.0 2.0 74 74
r 0.035528 1 2 cbr 210 ------- 6 1.0 2.0 32 32
+ 0.036 1 2 cbr 210 ------- 6 1.0 2.0 75 75
- 0.036 1 2 cbr 210 ------- 6 1.0 2.0 75 75
r 0.036008 1 2 cbr 210 ------- 6 1.0 2.0 33 33
+ 0.03648 1 2 cbr 210 ------- 6 1.0 2.0 76 76
- 0.03648 1 2 cbr 210 ------- 6 1.0 2.0 76 76
r 0.036488 1 2 cbr 210 ------- 6 1.0 2.0 34 34
+ 0.03696 1 2 cbr 210 ------- 6 1.0 2.0 77 77
- 0.03696 1 2 cbr 210 ------- 6 1.0 2.0 77 77
r 0.036968 1 2 cbr 210 ------- 6 1.0 2.0 35 35
+ 0.03744 1 2 cbr 210 ------- 6 1.0 2.0 78 78
- 0.03744 1 2 cbr 210 ------- 6 1.0 2.0 78 78
r 0.037448 1 2 cbr 210 ------- 6 1.0 2.0 36 36
+ 0.03792 1 2 cbr 210 ------- 6 1.0 2.0 79 79
- 0.03792 1 2 cbr 210 ------- 6 1.0 2.0 79 79
r 0.037928 1 2 cbr 210 ------- 6 1.0 2.0 37 37
+ 0.0384 1 2 cbr 210 ------- 6 1.0 2.0 80 80
- 0.0384 1 2 cbr 210 ------- 6 1.0 2.0 80 80
r 0.038408 1 2 cbr 210 ------- 6 1.0 2.0 38 38
+ 0.03888 1 2 cbr 210 ------- 6 1.0 2.0 81 81
- 0.03888 1 2 cbr 210 ------- 6 1.0 2.0 81 81
r 0.038888 1 2 cbr 210 ------- 6 1.0 2.0 39 39
+ 0.03936 1 2 cbr 210 ------- 6 1.0 2.0 82 82
- 0.03936 1 2 cbr 210 ------- 6 1.0 2.0 82 82
r 0.039368 1 2 cbr 210 ------- 6 1.0 2.0 40 40
+ 0.03984 1 2 cbr 210 ------- 6 1.0 2.0 83 83
- 0.03984 1 2 cbr 210 ------- 6 1.0 2.0 83 83
r 0.039848 1 2 cbr 210 ------- 6 1.0 2.0 41 41
+ 0.04032 1 2 cbr 210 ------- 6 1.0 2.0 84 84
- 0.04032 1 2 cbr 210 ------- 6 1.0 2.0 84 84
r 0.040328 1 2 cbr 210 ------- 6 1.0 2.0 42 42
+ 0.0408 1 2 cbr 210 ------- 6 1.0 2.0 85 85
- 0.0408 1 2 cbr 210 ------- 6 1.0 2.0 85 85
r 0.040808 1 2 cbr 210 ------- 6 1.0 2.0 43 43
+ 0.04128 1 2 cbr 210 ------- 6 1.0 2.0 86 86
- 0.04128 1 2 cbr 210 ------- 6 1.0 2.0 86 86
r 0.041288 1 2 cbr 210 ------- 6 1.0 2.0 44 44
+ 0.04176 1 2 cbr 210 ------- 6 1.0 2.0 87 87
- 0.04176 1 2 cbr 210 ------- 6 1.0 2.0 87 87
r 0.041768 1 2 cbr 210 ------- 6 1.0 2.0 45 45
+ 0.04224 1 2 cbr 210 ------- 6 1.0 2.0 88 88
- 0.04224 1 2 cbr 210 ------- 6 1.0 2.0 88 88
r 0.042248 1 2 cbr 210 ------- 6 1.0 2.0 46 46
+ 0.04272 1 2 cbr 210 ------- 6 1.0 2.0 89 89
- 0.04272 1 2 cbr 210 ------- 6 1.0 2.0 89 89
r 0.042728 1 2 cbr 210 ------- 6 1.0 2.0 47 47
+ 0.0432 1 2 cbr 210 ------- 6 1.0 2.0 90 90
- 0.0432 1 2 cbr 210 ------- 6 1.0 2.0 90 90
r 0.043208 1 2 cbr 210 ------- 6 1.0 2.0 48 48
+ 0.04368 1 2 cbr 210 ------- 6 1.0 2.0 91 91
- 0.04368 1 2 cbr 210 ------- 6 1.0 2.0 91 91
r 0.043688 1 2 cbr 210 ------- 6 1.0 2.0 49 49
+ 0.04416 1 2 cbr 210 ------- 6 1.0 2.0 92 92
- 0.04416 1 2 cbr 210 ------- 6 1.0 2.0 92 92
r 0.044168 1 2 cbr 210 ------- 6 1.0 2.0 50 50
+ 0.04464 1 2 cbr 210 ------- 6 1.0 2.0 93 93
- 0.04464 1 2 cbr 210 ------- 6 1.0 2.0 93 93
r 0.044648 1 2 cbr 210 ------- 6 1.0 2.0 51 51
+ 0.04512 1 2 cbr 210 ------- 6 1.0 2.0 94 94
- 0.04512 1 2 cbr 210 ------- 6 1.0 2.0 94 94
r 0.045128 1 2 cbr 210 ------- 6 1.0 2.0 52 52
+ 0.0456 1 2 cbr 210 ------- 6 1.0 2.0 95 95
- 0.0456 1 2 cbr 210 ------- 6 1.0 2.0 95 95
r 0.045608 1 2 cbr 210 ------- 6 1.0 2.0 53 53
+ 0.04608 1 2 cbr 210 ------- 6 1.0 2.0 96 96
- 0.04608 1 2 cbr 210 ------- 6 1.0 2.0 96 96
r 0.046088 1 2 cbr 210 ------- 6 1.0 2.0 54 54
+ 0.04656 1 2 cbr 210 ------- 6 1.0 2.0 97 97
- 0.04656 1 2 cbr 210 ------- 6 1.0 2.0 97 97
r 0.046568 1 2 cbr 210 ------- 6 1.0 2.0 55 55
+ 0.04704 1 2 cbr 210 ------- 6 1.0 2.0 98 98
- 0.04704 1 2 cbr 210 ------- 6 1.0 2.0 98 98
r 0.047048 1 2 cbr 210 ------- 6 1.0 2.0 56 56
+ 0.04752 1 2 cbr 210 ------- 6 1.0 2.0 99 99
- 0.04752 1 2 cbr 210 ------- 6 1.0 2.0 99 99
r 0.047528 1 2 cbr 210 ------- 6 1.0 2.0 57 57
+ 0.048 1 2 cbr 210 ------- 6 1.0 2.0 100 100
- 0.048 1 2 cbr 210 ------- 6 1.0 2.0 100 100
r 0.048008 1 2 cbr 210 ------- 6 1.0 2.0 58 58
+ 0.04848 1 2 cbr 210 ------- 6 1.0 2.0 101 101
- 0.04848 1 2 cbr 210 ------- 6 1.0 2.0 101 101
r 0.048488 1 2 cbr 210 ------- 6 1.0 2.0 59 59
+ 0.04896 1 2 cbr 210 ------- 6 1.0 2.0 102 102
- 0.04896 1 2 cbr 210 ------- 6 1.0 2.0 102 102
r 0.048968 1 2 cbr 210 ------- 6 1.0 2.0 60 60
+ 0.04944 1 2 cbr 210 ------- 6 1.0 2.0 103 103
- 0.04944 1 2 cbr 210 ------- 6 1.0 2.0 103 103
r 0.049448 1 2 cbr 210 ------- 6 1.0 2.0 61 61
+ 0.04992 1 2 cbr 210 ------- 6 1.0 2.0 104 104
- 0.04992 1 2 cbr 210 ------- 6 1.0 2.0 104 104
r 0.049928 1 2 cbr 210 ------- 6 1.0 2.0 62 62
+ 0.0504 1 2 cbr 210 ------- 6 1.0 2.0 105 105
- 0.0504 1 2 cbr 210 ------- 6 1.0 2.0 105 105
r 0.050408 1 2 cbr 210 ------- 6 1.0 2.0 63 63
+ 0.05088 1 2 cbr 210 ------- 6 1.0 2.0 106 106
- 0.05088 1 2 cbr 210 ------- 6 1.0 2.0 106 106
r 0.050888 1 2 cbr 210 ------- 6 1.0 2.0 64 64
+ 0.05136 1 2 cbr 210 ------- 6 1.0 2.0 107 107
- 0.05136 1 2 cbr 210 ------- 6 1.0 2.0 107 107
r 0.051368 1 2 cbr 210 ------- 6 1.0 2.0 65 65
+ 0.05184 1 2 cbr 210 ------- 6 1.0 2.0 108 108
- 0.05184 1 2 cbr 210 ------- 6 1.0 2.0 108 108
r 0.051848 1 2 cbr 210 ------- 6 1.0 2.0 66 66
+ 0.05232 1 2 cbr 210 ------- 6 1.0 2.0 109 109
- 0.05232 1 2 cbr 210 ------- 6 1.0 2.0 109 109
r 0.052328 1 2 cbr 210 ------- 6 1.0 2.0 67 67
+ 0.0528 1 2 cbr 210 ------- 6 1.0 2.0 110 110
- 0.0528 1 2 cbr 210 ------- 6 1.0 2.0 110 110
r 0.052808 1 2 cbr 210 ------- 6 1.0 2.0 68 68
+ 0.05328 1 2 cbr 210 ------- 6 1.0 2.0 111 111
- 0.05328 1 2 cbr 210 ------- 6 1.0 2.0 111 111
r 0.053288 1 2 cbr 210 ------- 6 1.0 2.0 69 69
+ 0.05376 1 2 cbr 210 ------- 6 1.0 2.0 112 112
- 0.05376 1 2 cbr 210 ------- 6 1.0 2.0 112 112
r 0.053768 1 2 cbr 210 ------- 6 1.0 2.0 70 70
+ 0.05424 1 2 cbr 210 ------- 6 1.0 2.0 113 113
- 0.05424 1 2 cbr 210 ------- 6 1.0 2.0 113 113
r 0.054248 1 2 cbr 210 ------- 6 1.0 2.0 71 71
+ 0.05472 1 2 cbr 210 ------- 6 1.0 2.0 114 114
- 0.05472 1 2 cbr 210 ------- 6 1.0 2.0 114 114
r 0.054728 1 2 cbr 210 ------- 6 1.0 2.0 72 72
+ 0.0552 1 2 cbr 210 ------- 6 1.0 2.0 115 115
- 0.0552 1 2 cbr 210 ------- 6 1.0 2.0 115 115
r 0.055208 1 2 cbr 210 ------- 6 1.0 2.0 73 73
+ 0.05568 1 2 cbr 210 ------- 6 1.0 2.0 116 116
- 0.05568 1 2 cbr 210 ------- 6 1.0 2.0 116 116
r 0.055688 1 2 cbr 210 ------- 6 1.0 2.0 74 74
+ 0.05616 1 2 cbr 210 ------- 6 1.0 2.0 117 117
- 0.05616 1 2 cbr 210 ------- 6 1.0 2.0 117 117
r 0.056168 1 2 cbr 210 ------- 6 1.0 2.0 75 75
+ 0.05664 1 2 cbr 210 ------- 6 1.0 2.0 118 118
- 0.05664 1 2 cbr 210 ------- 6 1.0 2.0 118 118
r 0.056648 1 2 cbr 210 ------- 6 1.0 2.0 76 76
+ 0.05712 1 2 cbr 210 ------- 6 1.0 2.0 119 119
- 0.05712 1 2 cbr 210 ------- 6 1.0 2.0 119 119
r 0.057128 1 2 cbr 210 ------- 6 1.0 2.0 77 77
+ 0.0576 1 2 cbr 210 ------- 6 1.0 2.0 120 120
- 0.0576 1 2 cbr 210 ------- 6 1.0 2.0 120 120
r 0.057608 1 2 cbr 210 ------- 6 1.0 2.0 78 78
+ 0.05808 1 2 cbr 210 ------- 6 1.0 2.0 121 121
- 0.05808 1 2 cbr 210 ------- 6 1.0 2.0 121 121
r 0.058088 1 2 cbr 210 ------- 6 1.0 2.0 79 79
+ 0.05856 1 2 cbr 210 ------- 6 1.0 2.0 122 122
- 0.05856 1 2 cbr 210 ------- 6 1.0 2.0 122 122
r 0.058568 1 2 cbr 210 ------- 6 1.0 2.0 80 80
+ 0.05904 1 2 cbr 210 ------- 6 1.0 2.0 123 123
- 0.05904 1 2 cbr 210 ------- 6 1.0 2.0 123 123
r 0.059048 1 2 cbr 210 ------- 6 1.0 2.0 81 81
+ 0.05952 1 2 cbr 210 ------- 6 1.0 2.0 124 124
- 0.05952 1 2 cbr 210 ------- 6 1.0 2.0 124 124
r 0.059528 1 2 cbr 210 ------- 6 1.0 2.0 82 82
+ 0.06 1 2 cbr 210 ------- 6 1.0 2.0 125 125
- 0.06 1 2 cbr 210 ------- 6 1.0 2.0 125 125
r 0.060008 1 2 cbr 210 ------- 6 1.0 2.0 83 83
+ 0.06048 1 2 cbr 210 ------- 6 1.0 2.0 126 126
- 0.06048 1 2 cbr 210 ------- 6 1.0 2.0 126 126
r 0.060488 1 2 cbr 210 ------- 6 1.0 2.0 84 84
+ 0.06096 1 2 cbr 210 ------- 6 1.0 2.0 127 127
- 0.06096 1 2 cbr 210 ------- 6 1.0 2.0 127 127
r 0.060968 1 2 cbr 210 ------- 6 1.0 2.0 85 85
+ 0.06144 1 2 cbr 210 ------- 6 1.0 2.0 128 128
- 0.06144 1 2 cbr 210 ------- 6 1.0 2.0 128 128
r 0.061448 1 2 cbr 210 ------- 6 1.0 2.0 86 86
+ 0.06192 1 2 cbr 210 ------- 6 1.0 2.0 129 129
- 0.06192 1 2 cbr 210 ------- 6 1.0 2.0 129 129
r 0.061928 1 2 cbr 210 ------- 6 1.0 2.0 87 87
+ 0.0624 1 2 cbr 210 ------- 6 1.0 2.0 130 130
- 0.0624 1 2 cbr 210 ------- 6 1.0 2.0 130 130
r 0.062408 1 2 cbr 210 ------- 6 1.0 2.0 88 88
+ 0.06288 1 2 cbr 210 ------- 6 1.0 2.0 131 131
- 0.06288 1 2 cbr 210 ------- 6 1.0 2.0 131 131
r 0.062888 1 2 cbr 210 ------- 6 1.0 2.0 89 89
+ 0.06336 1 2 cbr 210 ------- 6 1.0 2.0 132 132
- 0.06336 1 2 cbr 210 ------- 6 1.0 2.0 132 132
r 0.063368 1 2 cbr 210 ------- 6 1.0 2.0 90 90
+ 0.06384 1 2 cbr 210 ------- 6 1.0 2.0 133 133
- 0.06384 1 2 cbr 210 ------- 6 1.0 2.0 133 133
r 0.063848 1 2 cbr 210 ------- 6 1.0 2.0 91 91
+ 0.06432 1 2 cbr 210 ------- 6 1.0 2.0 134 134
- 0.06432 1 2 cbr 210 ------- 6 1.0 2.0 134 134
r 0.064328 1 2 cbr 210 ------- 6 1.0 2.0 92 92
+ 0.0648 1 2 cbr 210 ------- 6 1.0 2.0 135 135
- 0.0648 1 2 cbr 210 ------- 6 1.0 2.0 135 135
r 0.064808 1 2 cbr 210 ------- 6 1.0 2.0 93 93
+ 0.06528 1 2 cbr 210 ------- 6 1.0 2.0 136 136
- 0.06528 1 2 cbr 210 ------- 6 1.0 2.0 136 136
r 0.065288 1 2 cbr 210 ------- 6 1.0 2.0 94 94
+ 0.06576 1 2 cbr 210 ------- 6 1.0 2.0 137 137
- 0.06576 1 2 cbr 210 ------- 6 1.0 2.0 137 137
r 0.065768 1 2 cbr 210 ------- 6 1.0 2.0 95 95
+ 0.06624 1 2 cbr 210 ------- 6 1.0 2.0 138 138
- 0.06624 1 2 cbr 210 ------- 6 1.0 2.0 138 138
r 0.066248 1 2 cbr 210 ------- 6 1.0 2.0 96 96
+ 0.06672 1 2 cbr 210 ------- 6 1.0 2.0 139 139
- 0.06672 1 2 cbr 210 ------- 6 1.0 2.0 139 139
r 0.066728 1 2 cbr 210 ------- 6 1.0 2.0 97 97
+ 0.0672 1 2 cbr 210 ------- 6 1.0 2.0 140 140
- 0.0672 1 2 cbr 210 ------- 6 1.0 2.0 140 140
r 0.067208 1 2 cbr 210 ------- 6 1.0 2.0 98 98
+ 0.06768 1 2 cbr 210 ------- 6 1.0 2.0 141 141
- 0.06768 1 2 cbr 210 ------- 6 1.0 2.0 141 141
r 0.067688 1 2 cbr 210 ------- 6 1.0 2.0 99 99
+ 0.06816 1 2 cbr 210 ------- 6 1.0 2.0 142 142
- 0.06816 1 2 cbr 210 ------- 6 1.0 2.0 142 142
r 0.068168 1 2 cbr 210 ------- 6 1.0 2.0 100 100
+ 0.06864 1 2 cbr 210 ------- 6 1.0 2.0 143 143
- 0.06864 1 2 cbr 210 ------- 6 1.0 2.0 143 143
r 0.068648 1 2 cbr 210 ------- 6 1.0 2.0 101 101
+ 0.06912 1 2 cbr 210 ------- 6 1.0 2.0 144 144
- 0.06912 1 2 cbr 210 ------- 6 1.0 2.0 144 144
r 0.069128 1 2 cbr 210 ------- 6 1.0 2.0 102 102
+ 0.0696 1 2 cbr 210 ------- 6 1.0 2.0 145 145
- 0.0696 1 2 cbr 210 ------- 6 1.0 2.0 145 145
r 0.069608 1 2 cbr 210 ------- 6 1.0 2.0 103 103
+ 0.07008 1 2 cbr 210 ------- 6 1.0 2.0 146 146
- 0.07008 1 2 cbr 210 ------- 6 1.0 2.0 146 146
r 0.070088 1 2 cbr 210 ------- 6 1.0 2.0 104 104
+ 0.07056 1 2 cbr 210 ------- 6 1.0 2.0 147 147
- 0.07056 1 2 cbr 210 ------- 6 1.0 2.0 147 147
r 0.070568 1 2 cbr 210 ------- 6 1.0 2.0 105 105
+ 0.07104 1 2 cbr 210 ------- 6 1.0 2.0 148 148
- 0.07104 1 2 cbr 210 ------- 6 1.0 2.0 148 148
r 0.071048 1 2 cbr 210 ------- 6 1.0 2.0 106 106
+ 0.07152 1 2 cbr 210 ------- 6 1.0 2.0 149 149
- 0.07152 1 2 cbr 210 ------- 6 1.0 2.0 149 149
r 0.071528 1 2 cbr 210 ------- 6 1.0 2.0 107 107
+ 0.072 1 2 cbr 210 ------- 6 1.0 2.0 150 150
- 0.072 1 2 cbr 210 ------- 6 1.0 2.0 150 150
r 0.072008 1 2 cbr 210 ------- 6 1.0 2.0 108 108
+ 0.07248 1 2 cbr 210 ------- 6 1.0 2.0 151 151
- 0.07248 1 2 cbr 210 ------- 6 1.0 2.0 151 151
r 0.072488 1 2 cbr 210 ------- 6 1.0 2.0 109 109
+ 0.07296 1 2 cbr 210 ------- 6 1.0 2.0 152 152
- 0.07296 1 2 cbr 210 ------- 6 1.0 2.0 152 152
r 0.072968 1 2 cbr 210 ------- 6 1.0 2.0 110 110
+ 0.07344 1 2 cbr 210 ------- 6 1.0 2.0 153 153
- 0.07344 1 2 cbr 210 ------- 6 1.0 2.0 153 153
r 0.073448 1 2 cbr 210 ------- 6 1.0 2.0 111 111
+ 0.07392 1 2 cbr 210 ------- 6 1.0 2.0 154 154
- 0.07392 1 2 cbr 210 ------- 6 1.0 2.0 154 154
r 0.073928 1 2 cbr 210 ------- 6 1.0 2.0 112 112
+ 0.0744 1 2 cbr 210 ------- 6 1.0 2.0 155 155
- 0.0744 1 2 cbr 210 ------- 6 1.0 2.0 155 155
r 0.074408 1 2 cbr 210 ------- 6 1.0 2.0 113 113
+ 0.07488 1 2 cbr 210 ------- 6 1.0 2.0 156 156
- 0.07488 1 2 cbr 210 ------- 6 1.0 2.0 156 156
r 0.074888 1 2 cbr 210 ------- 6 1.0 2.0 114 114
+ 0.07536 1 2 cbr 210 ------- 6 1.0 2.0 157 157
- 0.07536 1 2 cbr 210 ------- 6 1.0 2.0 157 157
r 0.075368 1 2 cbr 210 ------- 6 1.0 2.0 115 115
+ 0.07584 1 2 cbr 210 ------- 6 1.0 2.0 158 158
- 0.07584 1 2 cbr 210 ------- 6 1.0 2.0 158 158
r 0.075848 1 2 cbr 210 ------- 6 1.0 2.0 116 116
+ 0.07632 1 2 cbr 210 ------- 6 1.0 2.0 159 159
- 0.07632 1 2 cbr 210 ------- 6 1.0 2.0 159 159
r 0.076328 1 2 cbr 210 ------- 6 1.0 2.0 117 117
+ 0.0768 1 2 cbr 210 ------- 6 1.0 2.0 160 160
- 0.0768 1 2 cbr 210 ------- 6 1.0 2.0 160 160
r 0.076808 1 2 cbr 210 ------- 6 1.0 2.0 118 118
+ 0.07728 1 2 cbr 210 ------- 6 1.0 2.0 161 161
- 0.07728 1 2 cbr 210 ------- 6 1.0 2.0 161 161
r 0.077288 1 2 cbr 210 ------- 6 1.0 2.0 119 119
+ 0.07776 1 2 cbr 210 ------- 6 1.0 2.0 162 162
- 0.07776 1 2 cbr 210 ------- 6 1.0 2.0 162 162
r 0.077768 1 2 cbr 210 ------- 6 1.0 2.0 120 120
+ 0.07824 1 2 cbr 210 ------- 6 1.0 2.0 163 163
- 0.07824 1 2 cbr 210 ------- 6 1.0 2.0 163 163
r 0.078248 1 2 cbr 210 ------- 6 1.0 2.0 121 121
+ 0.07872 1 2 cbr 210 ------- 6 1.0 2.0 164 164
- 0.07872 1 2 cbr 210 ------- 6 1.0 2.0 164 164
r 0.078728 1 2 cbr 210 ------- 6 1.0 2.0 122 122
+ 0.0792 1 2 cbr 210 ------- 6 1.0 2.0 165 165
- 0.0792 1 2 cbr 210 ------- 6 1.0 2.0 165 165
r 0.079208 1 2 cbr 210 ------- 6 1.0 2.0 123 123
+ 0.07968 1 2 cbr 210 ------- 6 1.0 2.0 166 166
- 0.07968 1 2 cbr 210 ------- 6 1.0 2.0 166 166
r 0.079688 1 2 cbr 210 ------- 6 1.0 2.0 124 124
+ 0.08016 1 2 cbr 210 ------- 6 1.0 2.0 167 167
- 0.08016 1 2 cbr 210 ------- 6 1.0 2.0 167 167
r 0.080168 1 2 cbr 210 ------- 6 1.0 2.0 125 125
+ 0.08064 1 2 cbr 210 ------- 6 1.0 2.0 168 168
- 0.08064 1 2 cbr 210 ------- 6 1.0 2.0 168 168
r 0.080648 1 2 cbr 210 ------- 6 1.0 2.0 126 126
+ 0.08112 1 2 cbr 210 ------- 6 1.0 2.0 169 169
- 0.08112 1 2 cbr 210 ------- 6 1.0 2.0 169 169
r 0.081128 1 2 cbr 210 ------- 6 1.0 2.0 127 127
+ 0.0816 1 2 cbr 210 ------- 6 1.0 2.0 170 170
- 0.0816 1 2 cbr 210 ------- 6 1.0 2.0 170 170
r 0.081608 1 2 cbr 210 ------- 6 1.0 2.0 128 128
+ 0.08208 1 2 cbr 210 ------- 6 1.0 2.0 171 171
- 0.08208 1 2 cbr 210 ------- 6 1.0 2.0 171 171
r 0.082088 1 2 cbr 210 ------- 6 1.0 2.0 129 129
+ 0.08256 1 2 cbr 210 ------- 6 1.0 2.0 172 172
- 0.08256 1 2 cbr 210 ------- 6 1.0 2.0 172 172
r 0.082568 1 2 cbr 210 ------- 6 1.0 2.0 130 130
+ 0.08304 1 2 cbr 210 ------- 6 1.0 2.0 173 173
- 0.08304 1 2 cbr 210 ------- 6 1.0 2.0 173 173
r 0.083048 1 2 cbr 210 ------- 6 1.0 2.0 131 131
+ 0.08352 1 2 cbr 210 ------- 6 1.0 2.0 174 174
- 0.08352 1 2 cbr 210 ------- 6 1.0 2.0 174 174
r 0.083528 1 2 cbr 210 ------- 6 1.0 2.0 132 132
+ 0.084 1 2 cbr 210 ------- 6 1.0 2.0 175 175
- 0.084 1 2 cbr 210 ------- 6 1.0 2.0 175 175
r 0.084008 1 2 cbr 210 ------- 6 1.0 2.0 133 133
+ 0.08448 1 2 cbr 210 ------- 6 1.0 2.0 176 176
- 0.08448 1 2 cbr 210 ------- 6 1.0 2.0 176 176
r 0.084488 1 2 cbr 210 ------- 6 1.0 2.0 134 134
+ 0.08496 1 2 cbr 210 ------- 6 1.0 2.0 177 177
- 0.08496 1 2 cbr 210 ------- 6 1.0 2.0 177 177
r 0.084968 1 2 cbr 210 ------- 6 1.0 2.0 135 135
+ 0.08544 1 2 cbr 210 ------- 6 1.0 2.0 178 178
- 0.08544 1 2 cbr 210 ------- 6 1.0 2.0 178 178
r 0.085448 1 2 cbr 210 ------- 6 1.0 2.0 136 136
+ 0.08592 1 2 cbr 210 ------- 6 1.0 2.0 179 179
- 0.08592 1 2 cbr 210 ------- 6 1.0 2.0 179 179
r 0.085928 1 2 cbr 210 ------- 6 1.0 2.0 137 137
+ 0.0864 1 2 cbr 210 ------- 6 1.0 2.0 180 180
- 0.0864 1 2 cbr 210 ------- 6 1.0 2.0 180 180
r 0.086408 1 2 cbr 210 ------- 6 1.0 2.0 138 138
+ 0.08688 1 2 cbr 210 ------- 6 1.0 2.0 181 181
- 0.08688 1 2 cbr 210 ------- 6 1.0 2.0 181 181
r 0.086888 1 2 cbr 210 ------- 6 1.0 2.0 139 139
+ 0.08736 1 2 cbr 210 ------- 6 1.0 2.0 182 182
- 0.08736 1 2 cbr 210 ------- 6 1.0 2.0 182 182
r 0.087368 1 2 cbr 210 ------- 6 1.0 2.0 140 140
+ 0.08784 1 2 cbr 210 ------- 6 1.0 2.0 183 183
- 0.08784 1 2 cbr 210 ------- 6 1.0 2.0 183 183
r 0.087848 1 2 cbr 210 ------- 6 1.0 2.0 141 141
+ 0.08832 1 2 cbr 210 ------- 6 1.0 2.0 184 184
- 0.08832 1 2 cbr 210 ------- 6 1.0 2.0 184 184
r 0.088328 1 2 cbr 210 ------- 6 1.0 2.0 142 142
+ 0.0888 1 2 cbr 210 ------- 6 1.0 2.0 185 185
- 0.0888 1 2 cbr 210 ------- 6 1.0 2.0 185 185
r 0.088808 1 2 cbr 210 ------- 6 1.0 2.0 143 143
+ 0.08928 1 2 cbr 210 ------- 6 1.0 2.0 186 186
- 0.08928 1 2 cbr 210 ------- 6 1.0 2.0 186 186
r 0.089288 1 2 cbr 210 ------- 6 1.0 2.0 144 144
+ 0.08976 1 2 cbr 210 ------- 6 1.0 2.0 187 187
- 0.08976 1 2 cbr 210 ------- 6 1.0 2.0 187 187
r 0.089768 1 2 cbr 210 ------- 6 1.0 2.0 145 145
+ 0.09024 1 2 cbr 210 ------- 6 1.0 2.0 188 188
- 0.09024 1 2 cbr 210 ------- 6 1.0 2.0 188 188
r 0.090248 1 2 cbr 210 ------- 6 1.0 2.0 146 146
+ 0.09072 1 2 cbr 210 ------- 6 1.0 2.0 189 189
- 0.09072 1 2 cbr 210 ------- 6 1.0 2.0 189 189
r 0.090728 1 2 cbr 210 ------- 6 1.0 2.0 147 147
+ 0.0912 1 2 cbr 210 ------- 6 1.0 2.0 190 190
- 0.0912 1 2 cbr 210 ------- 6 1.0 2.0 190 190
r 0.091208 1 2 cbr 210 ------- 6 1.0 2.0 148 148
+ 0.09168 1 2 cbr 210 ------- 6 1.0 2.0 191 191
- 0.09168 1 2 cbr 210 ------- 6 1.0 2.0 191 191
r 0.091688 1 2 cbr 210 ------- 6 1.0 2.0 149 149
+ 0.09216 1 2 cbr 210 ------- 6 1.0 2.0 192 192
- 0.09216 1 2 cbr 210 ------- 6 1.0 2.0 192 192
r 0.092168 1 2 cbr 210 ------- 6 1.0 2.0 150 150
+ 0.09264 1 2 cbr 210 ------- 6 1.0 2.0 193 193
- 0.09264 1 2 cbr 210 ------- 6 1.0 2.0 193 193
r 0.092648 1 2 cbr 210 ------- 6 1.0 2.0 151 151
+ 0.09312 1 2 cbr 210 ------- 6 1.0 2.0 194 194
- 0.09312 1 2 cbr 210 ------- 6 1.0 2.0 194 194
r 0.093128 1 2 cbr 210 ------- 6 1.0 2.0 152 152
+ 0.0936 1 2 cbr 210 ------- 6 1.0 2.0 195 195
- 0.0936 1 2 cbr 210 ------- 6 1.0 2.0 195 195
r 0.093608 1 2 cbr 210 ------- 6 1.0 2.0 153 153
+ 0.09408 1 2 cbr 210 ------- 6 1.0 2.0 196 196
- 0.09408 1 2 cbr 210 ------- 6 1.0 2.0 196 196
r 0.094088 1 2 cbr 210 ------- 6 1.0 2.0 154 154
+ 0.09456 1 2 cbr 210 ------- 6 1.0 2.0 197 197
- 0.09456 1 2 cbr 210 ------- 6 1.0 2.0 197 197
r 0.094568 1 2 cbr 210 ------- 6 1.0 2.0 155 155
+ 0.09504 1 2 cbr 210 ------- 6 1.0 2.0 198 198
- 0.09504 1 2 cbr 210 ------- 6 1.0 2.0 198 198
r 0.095048 1 2 cbr 210 ------- 6 1.0 2.0 156 156
+ 0.09552 1 2 cbr 210 ------- 6 1.0 2.0 199 199
- 0.09552 1 2 cbr 210 ------- 6 1.0 2.0 199 199
r 0.095528 1 2 cbr 210 ------- 6 1.0 2.0 157 157
+ 0.096 1 2 cbr 210 ------- 6 1.0 2.0 200 200
- 0.096 1 2 cbr 210 ------- 6 1.0 2.0 200 200
r 0.096008 1 2 cbr 210 ------- 6 1.0 2.0 158 158
+ 0.09648 1 2 cbr 210 ------- 6 1.0 2.0 201 201
- 0.09648 1 2 cbr 210 ------- 6 1.0 2.0 201 201
r 0.096488 1 2 cbr 210 ------- 6 1.0 2.0 159 159
+ 0.09696 1 2 cbr 210 ------- 6 1.0 2.0 202 202
- 0.09696 1 2 cbr 210 ------- 6 1.0 2.0 202 202
r 0.096968 1 2 cbr 210 ------- 6 1.0 2.0 160 160
+ 0.09744 1 2 cbr 210 ------- 6 1.0 2.0 203 203
- 0.09744 1 2 cbr 210 ------- 6 1.0 2.0 203 203
r 0.097448 1 2 cbr 210 ------- 6 1.0 2.0 161 161
+ 0.09792 1 2 cbr 210 ------- 6 1.0 2.0 204 204
- 0.09792 1 2 cbr 210 ------- 6 1.0 2.0 204 204
r 0.097928 1 2 cbr 210 ------- 6 1.0 2.0 162 162
+ 0.0984 1 2 cbr 210 ------- 6 1.0 2.0 205 205
- 0.0984 1 2 cbr 210 ------- 6 1.0 2.0 205 205
r 0.098408 1 2 cbr 210 ------- 6 1.0 2.0 163 163
+ 0.09888 1 2 cbr 210 ------- 6 1.0 2.0 206 206
- 0.09888 1 2 cbr 210 ------- 6 1.0 2.0 206 206
r 0.098888 1 2 cbr 210 ------- 6 1.0 2.0 164 164
+ 0.09936 1 2 cbr 210 ------- 6 1.0 2.0 207 207
- 0.09936 1 2 cbr 210 ------- 6 1.0 2.0 207 207
r 0.099368 1 2 cbr 210 ------- 6 1.0 2.0 165 165
+ 0.09984 1 2 cbr 210 ------- 6 1.0 2.0 208 208
- 0.09984 1 2 cbr 210 ------- 6 1.0 2.0 208 208
r 0.099848 1 2 cbr 210 ------- 6 1.0 2.0 166 166
+ 0.10032 1 2 cbr 210 ------- 6 1.0 2.0 209 209
- 0.10032 1 2 cbr 210 ------- 6 1.0 2.0 209 209
r 0.100328 1 2 cbr 210 ------- 6 1.0 2.0 167 167
+ 0.1008 1 2 cbr 210 ------- 6 1.0 2.0 210 210
- 0.1008 1 2 cbr 210 ------- 6 1.0 2.0 210 210
r 0.100808 1 2 cbr 210 ------- 6 1.0 2.0 168 168
+ 0.10128 1 2 cbr 210 ------- 6 1.0 2.0 211 211
- 0.10128 1 2 cbr 210 ------- 6 1.0 2.0 211 211
r 0.101288 1 2 cbr 210 ------- 6 1.0 2.0 169 169
+ 0.10176 1 2 cbr 210 ------- 6 1.0 2.0 212 212
- 0.10176 1 2 cbr 210 ------- 6 1.0 2.0 212 212
r 0.101768 1 2 cbr 210 ------- 6 1.0 2.0 170 170
+ 0.10224 1 2 cbr 210 ------- 6 1.0 2.0 213 213
- 0.10224 1 2 cbr 210 ------- 6 1.0 2.0 213 213
r 0.102248 1 2 cbr 210 ------- 6 1.0 2.0 171 171
+ 0.10272 1 2 cbr 210 ------- 6 1.0 2.0 214 214
- 0.10272 1 2 cbr 210 ------- 6 1.0 2.0 214 214
r 0.102728 1 2 cbr 210 ------- 6 1.0 2.0 172 172
+ 0.1032 1 2 cbr 210 ------- 6 1.0 2.0 215 215
- 0.1032 1 2 cbr 210 ------- 6 1.0 2.0 215 215
r 0.103208 1 2 cbr 210 ------- 6 1.0 2.0 173 173
+ 0.10368 1 2 cbr 210 ------- 6 1.0 2.0 216 216
- 0.10368 1 2 cbr 210 ------- 6 1.0 2.0 216 216
r 0.103688 1 2 cbr 210 ------- 6 1.0 2.0 174 174
+ 0.10416 1 2 cbr 210 ------- 6 1.0 2.0 217 217
- 0.10416 1 2 cbr 210 ------- 6 1.0 2.0 217 217
r 0.104168 1 2 cbr 210 ------- 6 1.0 2.0 175 175
+ 0.10464 1 2 cbr 210 ------- 6 1.0 2.0 218 218
- 0.10464 1 2 cbr 210 ------- 6 1.0 2.0 218 218
r 0.104648 1 2 cbr 210 ------- 6 1.0 2.0 176 176
+ 0.10512 1 2 cbr 210 ------- 6 1.0 2.0 219 219
- 0.10512 1 2 cbr 210 ------- 6 1.0 2.0 219 219
r 0.105128 1 2 cbr 210 ------- 6 1.0 2.0 177 177
+ 0.1056 1 2 cbr 210 ------- 6 1.0 2.0 220 220
- 0.1056 1 2 cbr 210 ------- 6 1.0 2.0 220 220
r 0.105608 1 2 cbr 210 ------- 6 1.0 2.0 178 178
+ 0.10608 1 2 cbr 210 ------- 6 1.0 2.0 221 221
- 0.10608 1 2 cbr 210 ------- 6 1.0 2.0 221 221
r 0.106088 1 2 cbr 210 ------- 6 1.0 2.0 179 179
+ 0.10656 1 2 cbr 210 ------- 6 1.0 2.0 222 222
- 0.10656 1 2 cbr 210 ------- 6 1.0 2.0 222 222
r 0.106568 1 2 cbr 210 ------- 6 1.0 2.0 180 180
+ 0.10704 1 2 cbr 210 ------- 6 1.0 2.0 223 223
- 0.10704 1 2 cbr 210 ------- 6 1.0 2.0 223 223
r 0.107048 1 2 cbr 210 ------- 6 1.0 2.0 181 181
+ 0.10752 1 2 cbr 210 ------- 6 1.0 2.0 224 224
- 0.10752 1 2 cbr 210 ------- 6 1.0 2.0 224 224
r 0.107528 1 2 cbr 210 ------- 6 1.0 2.0 182 182
+ 0.108 1 2 cbr 210 ------- 6 1.0 2.0 225 225
- 0.108 1 2 cbr 210 ------- 6 1.0 2.0 225 225
r 0.108008 1 2 cbr 210 ------- 6 1.0 2.0 183 183
+ 0.10848 1 2 cbr 210 ------- 6 1.0 2.0 226 226