+ 0 0 1 cbr 210 ------- 1 0.0 3.0 0 0
- 0 0 1 cbr 210 ------- 1 0.0 3.0 0 0
+ 0.00168 0 1 cbr 210 ------- 1 0.0 3.0 1 1
- 0.00168 0 1 cbr 210 ------- 1 0.0 3.0 1 1
+ 0.00336 0 1 cbr 210 ------- 1 0.0 3.0 2 2
- 0.00336 0 1 cbr 210 ------- 1 0.0 3.0 2 2
+ 0.00504 0 1 cbr 210 ------- 1 0.0 3.0 3 3
- 0.00504 0 1 cbr 210 ------- 1 0.0 3.0 3 3
+ 0.00672 0 1 cbr 210 ------- 1 0.0 3.0 4 4
- 0.00672 0 1 cbr 210 ------- 1 0.0 3.0 4 4
+ 0.0084 0 1 cbr 210 ------- 1 0.0 3.0 5 5
- 0.0084 0 1 cbr 210 ------- 1 0.0 3.0 5 5
+ 0.01008 0 1 cbr 210 ------- 1 0.0 3.0 6 6
- 0.01008 0 1 cbr 210 ------- 1 0.0 3.0 6 6
+ 0.01176 0 1 cbr 210 ------- 1 0.0 3.0 7 7
- 0.01176 0 1 cbr 210 ------- 1 0.0 3.0 7 7
+ 0.01344 0 1 cbr 210 ------- 1 0.0 3.0 8 8
- 0.01344 0 1 cbr 210 ------- 1 0.0 3.0 8 8
+ 0.01512 0 1 cbr 210 ------- 1 0.0 3.0 9 9
- 0.01512 0 1 cbr 210 ------- 1 0.0 3.0 9 9
+ 0.0168 0 1 cbr 210 ------- 1 0.0 3.0 10 10
- 0.0168 0 1 cbr 210 ------- 1 0.0 3.0 10 10
+ 0.01848 0 1 cbr 210 ------- 1 0.0 3.0 11 11
- 0.01848 0 1 cbr 210 ------- 1 0.0 3.0 11 11
+ 0.02016 0 1 cbr 210 ------- 1 0.0 3.0 12 12
- 0.02016 0 1 cbr 210 ------- 1 0.0 3.0 12 12
r 0.020168 0 1 cbr 210 ------- 1 0.0 3.0 0 0
+ 0.020168 1 2 cbr 210 ------- 1 0.0 3.0 0 0
- 0.020168 1 2 cbr 210 ------- 1 0.0 3.0 0 0
+ 0.02184 0 1 cbr 210 ------- 1 0.0 3.0 13 13
- 0.02184 0 1 cbr 210 ------- 1 0.0 3.0 13 13
r 0.021848 0 1 cbr 210 ------- 1 0.0 3.0 1 1
+ 0.021848 1 2 cbr 210 ------- 1 0.0 3.0 1 1
- 0.021848 1 2 cbr 210 ------- 1 0.0 3.0 1 1
+ 0.02352 0 1 cbr 210 ------- 1 0.0 3.0 14 14
- 0.02352 0 1 cbr 210 ------- 1 0.0 3.0 14 14
r 0.023528 0 1 cbr 210 ------- 1 0.0 3.0 2 2
+ 0.023528 1 2 cbr 210 ------- 1 0.0 3.0 2 2
- 0.023528 1 2 cbr 210 ------- 1 0.0 3.0 2 2
+ 0.0252 0 1 cbr 210 ------- 1 0.0 3.0 15 15
- 0.0252 0 1 cbr 210 ------- 1 0.0 3.0 15 15
r 0.025208 0 1 cbr 210 ------- 1 0.0 3.0 3 3
+ 0.025208 1 2 cbr 210 ------- 1 0.0 3.0 3 3
- 0.025208 1 2 cbr 210 ------- 1 0.0 3.0 3 3
+ 0.02688 0 1 cbr 210 ------- 1 0.0 3.0 16 16
- 0.02688 0 1 cbr 210 ------- 1 0.0 3.0 16 16
r 0.026888 0 1 cbr 210 ------- 1 0.0 3.0 4 4
+ 0.026888 1 2 cbr 210 ------- 1 0.0 3.0 4 4
- 0.026888 1 2 cbr 210 ------- 1 0.0 3.0 4 4
+ 0.02856 0 1 cbr 210 ------- 1 0.0 3.0 17 17
- 0.02856 0 1 cbr 210 ------- 1 0.0 3.0 17 17
r 0.028568 0 1 cbr 210 ------- 1 0.0 3.0 5 5
+ 0.028568 1 2 cbr 210 ------- 1 0.0 3.0 5 5
- 0.028568 1 2 cbr 210 ------- 1 0.0 3.0 5 5
+ 0.03024 0 1 cbr 210 ------- 1 0.0 3.0 18 18
- 0.03024 0 1 cbr 210 ------- 1 0.0 3.0 18 18
r 0.030248 0 1 cbr 210 ------- 1 0.0 3.0 6 6
+ 0.030248 1 2 cbr 210 ------- 1 0.0 3.0 6 6
- 0.030248 1 2 cbr 210 ------- 1 0.0 3.0 6 6
+ 0.03192 0 1 cbr 210 ------- 1 0.0 3.0 19 19
- 0.03192 0 1 cbr 210 ------- 1 0.0 3.0 19 19
r 0.031928 0 1 cbr 210 ------- 1 0.0 3.0 7 7
+ 0.031928 1 2 cbr 210 ------- 1 0.0 3.0 7 7
- 0.031928 1 2 cbr 210 ------- 1 0.0 3.0 7 7
+ 0.0336 0 1 cbr 210 ------- 1 0.0 3.0 20 20
- 0.0336 0 1 cbr 210 ------- 1 0.0 3.0 20 20
r 0.033608 0 1 cbr 210 ------- 1 0.0 3.0 8 8
+ 0.033608 1 2 cbr 210 ------- 1 0.0 3.0 8 8
- 0.033608 1 2 cbr 210 ------- 1 0.0 3.0 8 8
+ 0.03528 0 1 cbr 210 ------- 1 0.0 3.0 21 21
- 0.03528 0 1 cbr 210 ------- 1 0.0 3.0 21 21
r 0.035288 0 1 cbr 210 ------- 1 0.0 3.0 9 9
+ 0.035288 1 2 cbr 210 ------- 1 0.0 3.0 9 9
- 0.035288 1 2 cbr 210 ------- 1 0.0 3.0 9 9
+ 0.03696 0 1 cbr 210 ------- 1 0.0 3.0 22 22
- 0.03696 0 1 cbr 210 ------- 1 0.0 3.0 22 22
r 0.036968 0 1 cbr 210 ------- 1 0.0 3.0 10 10
+ 0.036968 1 2 cbr 210 ------- 1 0.0 3.0 10 10
- 0.036968 1 2 cbr 210 ------- 1 0.0 3.0 10 10
+ 0.03864 0 1 cbr 210 ------- 1 0.0 3.0 23 23
- 0.03864 0 1 cbr 210 ------- 1 0.0 3.0 23 23
r 0.038648 0 1 cbr 210 ------- 1 0.0 3.0 11 11
+ 0.038648 1 2 cbr 210 ------- 1 0.0 3.0 11 11
- 0.038648 1 2 cbr 210 ------- 1 0.0 3.0 11 11
+ 0.04032 0 1 cbr 210 ------- 1 0.0 3.0 24 24
- 0.04032 0 1 cbr 210 ------- 1 0.0 3.0 24 24
r 0.040328 0 1 cbr 210 ------- 1 0.0 3.0 12 12
+ 0.040328 1 2 cbr 210 ------- 1 0.0 3.0 12 12
- 0.040328 1 2 cbr 210 ------- 1 0.0 3.0 12 12
r 0.041288 1 2 cbr 210 ------- 1 0.0 3.0 0 0
+ 0.041288 2 3 cbr 210 ------- 1 0.0 3.0 0 0
- 0.041288 2 3 cbr 210 ------- 1 0.0 3.0 0 0
+ 0.042 0 1 cbr 210 ------- 1 0.0 3.0 25 25
- 0.042 0 1 cbr 210 ------- 1 0.0 3.0 25 25
r 0.042008 0 1 cbr 210 ------- 1 0.0 3.0 13 13
+ 0.042008 1 2 cbr 210 ------- 1 0.0 3.0 13 13
- 0.042008 1 2 cbr 210 ------- 1 0.0 3.0 13 13
r 0.042968 1 2 cbr 210 ------- 1 0.0 3.0 1 1
+ 0.042968 2 3 cbr 210 ------- 1 0.0 3.0 1 1
- 0.042968 2 3 cbr 210 ------- 1 0.0 3.0 1 1
+ 0.04368 0 1 cbr 210 ------- 1 0.0 3.0 26 26
- 0.04368 0 1 cbr 210 ------- 1 0.0 3.0 26 26
r 0.043688 0 1 cbr 210 ------- 1 0.0 3.0 14 14
+ 0.043688 1 2 cbr 210 ------- 1 0.0 3.0 14 14
- 0.043688 1 2 cbr 210 ------- 1 0.0 3.0 14 14
r 0.044648 1 2 cbr 210 ------- 1 0.0 3.0 2 2
+ 0.044648 2 3 cbr 210 ------- 1 0.0 3.0 2 2
- 0.044648 2 3 cbr 210 ------- 1 0.0 3.0 2 2
+ 0.04536 0 1 cbr 210 ------- 1 0.0 3.0 27 27
- 0.04536 0 1 cbr 210 ------- 1 0.0 3.0 27 27
r 0.045368 0 1 cbr 210 ------- 1 0.0 3.0 15 15
+ 0.045368 1 2 cbr 210 ------- 1 0.0 3.0 15 15
- 0.045368 1 2 cbr 210 ------- 1 0.0 3.0 15 15
r 0.046328 1 2 cbr 210 ------- 1 0.0 3.0 3 3
+ 0.046328 2 3 cbr 210 ------- 1 0.0 3.0 3 3
- 0.046328 2 3 cbr 210 ------- 1 0.0 3.0 3 3
+ 0.04704 0 1 cbr 210 ------- 1 0.0 3.0 28 28
- 0.04704 0 1 cbr 210 ------- 1 0.0 3.0 28 28
r 0.047048 0 1 cbr 210 ------- 1 0.0 3.0 16 16
+ 0.047048 1 2 cbr 210 ------- 1 0.0 3.0 16 16
- 0.047048 1 2 cbr 210 ------- 1 0.0 3.0 16 16
r 0.048008 1 2 cbr 210 ------- 1 0.0 3.0 4 4
+ 0.048008 2 3 cbr 210 ------- 1 0.0 3.0 4 4
- 0.048008 2 3 cbr 210 ------- 1 0.0 3.0 4 4
+ 0.04872 0 1 cbr 210 ------- 1 0.0 3.0 29 29
- 0.04872 0 1 cbr 210 ------- 1 0.0 3.0 29 29
r 0.048728 0 1 cbr 210 ------- 1 0.0 3.0 17 17
+ 0.048728 1 2 cbr 210 ------- 1 0.0 3.0 17 17
- 0.048728 1 2 cbr 210 ------- 1 0.0 3.0 17 17
r 0.049688 1 2 cbr 210 ------- 1 0.0 3.0 5 5
+ 0.049688 2 3 cbr 210 ------- 1 0.0 3.0 5 5
- 0.049688 2 3 cbr 210 ------- 1 0.0 3.0 5 5
+ 0.0504 0 1 cbr 210 ------- 1 0.0 3.0 30 30
- 0.0504 0 1 cbr 210 ------- 1 0.0 3.0 30 30
r 0.050408 0 1 cbr 210 ------- 1 0.0 3.0 18 18
+ 0.050408 1 2 cbr 210 ------- 1 0.0 3.0 18 18
- 0.050408 1 2 cbr 210 ------- 1 0.0 3.0 18 18
r 0.051368 1 2 cbr 210 ------- 1 0.0 3.0 6 6
+ 0.051368 2 3 cbr 210 ------- 1 0.0 3.0 6 6
- 0.051368 2 3 cbr 210 ------- 1 0.0 3.0 6 6
+ 0.05208 0 1 cbr 210 ------- 1 0.0 3.0 31 31
- 0.05208 0 1 cbr 210 ------- 1 0.0 3.0 31 31
r 0.052088 0 1 cbr 210 ------- 1 0.0 3.0 19 19
+ 0.052088 1 2 cbr 210 ------- 1 0.0 3.0 19 19
- 0.052088 1 2 cbr 210 ------- 1 0.0 3.0 19 19
r 0.053048 1 2 cbr 210 ------- 1 0.0 3.0 7 7
+ 0.053048 2 3 cbr 210 ------- 1 0.0 3.0 7 7
- 0.053048 2 3 cbr 210 ------- 1 0.0 3.0 7 7
+ 0.05376 0 1 cbr 210 ------- 1 0.0 3.0 32 32
- 0.05376 0 1 cbr 210 ------- 1 0.0 3.0 32 32
r 0.053768 0 1 cbr 210 ------- 1 0.0 3.0 20 20
+ 0.053768 1 2 cbr 210 ------- 1 0.0 3.0 20 20
- 0.053768 1 2 cbr 210 ------- 1 0.0 3.0 20 20
r 0.054728 1 2 cbr 210 ------- 1 0.0 3.0 8 8
+ 0.054728 2 3 cbr 210 ------- 1 0.0 3.0 8 8
- 0.054728 2 3 cbr 210 ------- 1 0.0 3.0 8 8
+ 0.05544 0 1 cbr 210 ------- 1 0.0 3.0 33 33
- 0.05544 0 1 cbr 210 ------- 1 0.0 3.0 33 33
r 0.055448 0 1 cbr 210 ------- 1 0.0 3.0 21 21
+ 0.055448 1 2 cbr 210 ------- 1 0.0 3.0 21 21
- 0.055448 1 2 cbr 210 ------- 1 0.0 3.0 21 21
r 0.056408 1 2 cbr 210 ------- 1 0.0 3.0 9 9
+ 0.056408 2 3 cbr 210 ------- 1 0.0 3.0 9 9
- 0.056408 2 3 cbr 210 ------- 1 0.0 3.0 9 9
+ 0.05712 0 1 cbr 210 ------- 1 0.0 3.0 34 34
- 0.05712 0 1 cbr 210 ------- 1 0.0 3.0 34 34
r 0.057128 0 1 cbr 210 ------- 1 0.0 3.0 22 22
+ 0.057128 1 2 cbr 210 ------- 1 0.0 3.0 22 22
- 0.057128 1 2 cbr 210 ------- 1 0.0 3.0 22 22
r 0.058088 1 2 cbr 210 ------- 1 0.0 3.0 10 10
+ 0.058088 2 3 cbr 210 ------- 1 0.0 3.0 10 10
- 0.058088 2 3 cbr 210 ------- 1 0.0 3.0 10 10
+ 0.0588 0 1 cbr 210 ------- 1 0.0 3.0 35 35
- 0.0588 0 1 cbr 210 ------- 1 0.0 3.0 35 35
r 0.058808 0 1 cbr 210 ------- 1 0.0 3.0 23 23
+ 0.058808 1 2 cbr 210 ------- 1 0.0 3.0 23 23
- 0.058808 1 2 cbr 210 ------- 1 0.0 3.0 23 23
r 0.059768 1 2 cbr 210 ------- 1 0.0 3.0 11 11
+ 0.059768 2 3 cbr 210 ------- 1 0.0 3.0 11 11
- 0.059768 2 3 cbr 210 ------- 1 0.0 3.0 11 11
+ 0.06048 0 1 cbr 210 ------- 1 0.0 3.0 36 36
- 0.06048 0 1 cbr 210 ------- 1 0.0 3.0 36 36
r 0.060488 0 1 cbr 210 ------- 1 0.0 3.0 24 24
+ 0.060488 1 2 cbr 210 ------- 1 0.0 3.0 24 24
- 0.060488 1 2 cbr 210 ------- 1 0.0 3.0 24 24
r 0.061448 1 2 cbr 210 ------- 1 0.0 3.0 12 12
+ 0.061448 2 3 cbr 210 ------- 1 0.0 3.0 12 12
- 0.061448 2 3 cbr 210 ------- 1 0.0 3.0 12 12
r 0.061456 2 3 cbr 210 ------- 1 0.0 3.0 0 0
+ 0.06216 0 1 cbr 210 ------- 1 0.0 3.0 37 37
- 0.06216 0 1 cbr 210 ------- 1 0.0 3.0 37 37
r 0.062168 0 1 cbr 210 ------- 1 0.0 3.0 25 25
+ 0.062168 1 2 cbr 210 ------- 1 0.0 3.0 25 25
- 0.062168 1 2 cbr 210 ------- 1 0.0 3.0 25 25
r 0.063128 1 2 cbr 210 ------- 1 0.0 3.0 13 13
+ 0.063128 2 3 cbr 210 ------- 1 0.0 3.0 13 13
- 0.063128 2 3 cbr 210 ------- 1 0.0 3.0 13 13
r 0.063136 2 3 cbr 210 ------- 1 0.0 3.0 1 1
+ 0.06384 0 1 cbr 210 ------- 1 0.0 3.0 38 38
- 0.06384 0 1 cbr 210 ------- 1 0.0 3.0 38 38
r 0.063848 0 1 cbr 210 ------- 1 0.0 3.0 26 26
+ 0.063848 1 2 cbr 210 ------- 1 0.0 3.0 26 26
- 0.063848 1 2 cbr 210 ------- 1 0.0 3.0 26 26
r 0.064808 1 2 cbr 210 ------- 1 0.0 3.0 14 14
+ 0.064808 2 3 cbr 210 ------- 1 0.0 3.0 14 14
- 0.064808 2 3 cbr 210 ------- 1 0.0 3.0 14 14
r 0.064816 2 3 cbr 210 ------- 1 0.0 3.0 2 2
+ 0.06552 0 1 cbr 210 ------- 1 0.0 3.0 39 39
- 0.06552 0 1 cbr 210 ------- 1 0.0 3.0 39 39
r 0.065528 0 1 cbr 210 ------- 1 0.0 3.0 27 27
+ 0.065528 1 2 cbr 210 ------- 1 0.0 3.0 27 27
- 0.065528 1 2 cbr 210 ------- 1 0.0 3.0 27 27
r 0.066488 1 2 cbr 210 ------- 1 0.0 3.0 15 15
+ 0.066488 2 3 cbr 210 ------- 1 0.0 3.0 15 15
- 0.066488 2 3 cbr 210 ------- 1 0.0 3.0 15 15
r 0.066496 2 3 cbr 210 ------- 1 0.0 3.0 3 3
+ 0.0672 0 1 cbr 210 ------- 1 0.0 3.0 40 40
- 0.0672 0 1 cbr 210 ------- 1 0.0 3.0 40 40
r 0.067208 0 1 cbr 210 ------- 1 0.0 3.0 28 28
+ 0.067208 1 2 cbr 210 ------- 1 0.0 3.0 28 28
- 0.067208 1 2 cbr 210 ------- 1 0.0 3.0 28 28
r 0.068168 1 2 cbr 210 ------- 1 0.0 3.0 16 16
+ 0.068168 2 3 cbr 210 ------- 1 0.0 3.0 16 16
- 0.068168 2 3 cbr 210 ------- 1 0.0 3.0 16 16
r 0.068176 2 3 cbr 210 ------- 1 0.0 3.0 4 4
+ 0.06888 0 1 cbr 210 ------- 1 0.0 3.0 41 41
- 0.06888 0 1 cbr 210 ------- 1 0.0 3.0 41 41
r 0.068888 0 1 cbr 210 ------- 1 0.0 3.0 29 29
+ 0.068888 1 2 cbr 210 ------- 1 0.0 3.0 29 29
- 0.068888 1 2 cbr 210 ------- 1 0.0 3.0 29 29
r 0.069848 1 2 cbr 210 ------- 1 0.0 3.0 17 17
+ 0.069848 2 3 cbr 210 ------- 1 0.0 3.0 17 17
- 0.069848 2 3 cbr 210 ------- 1 0.0 3.0 17 17
r 0.069856 2 3 cbr 210 ------- 1 0.0 3.0 5 5
+ 0.07056 0 1 cbr 210 ------- 1 0.0 3.0 42 42
- 0.07056 0 1 cbr 210 ------- 1 0.0 3.0 42 42
r 0.070568 0 1 cbr 210 ------- 1 0.0 3.0 30 30
+ 0.070568 1 2 cbr 210 ------- 1 0.0 3.0 30 30
- 0.070568 1 2 cbr 210 ------- 1 0.0 3.0 30 30
r 0.071528 1 2 cbr 210 ------- 1 0.0 3.0 18 18
+ 0.071528 2 3 cbr 210 ------- 1 0.0 3.0 18 18
- 0.071528 2 3 cbr 210 ------- 1 0.0 3.0 18 18
r 0.071536 2 3 cbr 210 ------- 1 0.0 3.0 6 6
+ 0.07224 0 1 cbr 210 ------- 1 0.0 3.0 43 43
- 0.07224 0 1 cbr 210 ------- 1 0.0 3.0 43 43
r 0.072248 0 1 cbr 210 ------- 1 0.0 3.0 31 31
+ 0.072248 1 2 cbr 210 ------- 1 0.0 3.0 31 31
- 0.072248 1 2 cbr 210 ------- 1 0.0 3.0 31 31
r 0.073208 1 2 cbr 210 ------- 1 0.0 3.0 19 19
+ 0.073208 2 3 cbr 210 ------- 1 0.0 3.0 19 19
- 0.073208 2 3 cbr 210 ------- 1 0.0 3.0 19 19
r 0.073216 2 3 cbr 210 ------- 1 0.0 3.0 7 7
+ 0.07392 0 1 cbr 210 ------- 1 0.0 3.0 44 44
- 0.07392 0 1 cbr 210 ------- 1 0.0 3.0 44 44
r 0.073928 0 1 cbr 210 ------- 1 0.0 3.0 32 32
+ 0.073928 1 2 cbr 210 ------- 1 0.0 3.0 32 32
- 0.073928 1 2 cbr 210 ------- 1 0.0 3.0 32 32
r 0.074888 1 2 cbr 210 ------- 1 0.0 3.0 20 20
+ 0.074888 2 3 cbr 210 ------- 1 0.0 3.0 20 20
- 0.074888 2 3 cbr 210 ------- 1 0.0 3.0 20 20
r 0.074896 2 3 cbr 210 ------- 1 0.0 3.0 8 8
+ 0.0756 0 1 cbr 210 ------- 1 0.0 3.0 45 45
- 0.0756 0 1 cbr 210 ------- 1 0.0 3.0 45 45
r 0.075608 0 1 cbr 210 ------- 1 0.0 3.0 33 33
+ 0.075608 1 2 cbr 210 ------- 1 0.0 3.0 33 33
- 0.075608 1 2 cbr 210 ------- 1 0.0 3.0 33 33
r 0.076568 1 2 cbr 210 ------- 1 0.0 3.0 21 21
+ 0.076568 2 3 cbr 210 ------- 1 0.0 3.0 21 21
- 0.076568 2 3 cbr 210 ------- 1 0.0 3.0 21 21
r 0.076576 2 3 cbr 210 ------- 1 0.0 3.0 9 9
+ 0.07728 0 1 cbr 210 ------- 1 0.0 3.0 46 46
- 0.07728 0 1 cbr 210 ------- 1 0.0 3.0 46 46
r 0.077288 0 1 cbr 210 ------- 1 0.0 3.0 34 34
+ 0.077288 1 2 cbr 210 ------- 1 0.0 3.0 34 34
- 0.077288 1 2 cbr 210 ------- 1 0.0 3.0 34 34
r 0.078248 1 2 cbr 210 ------- 1 0.0 3.0 22 22
+ 0.078248 2 3 cbr 210 ------- 1 0.0 3.0 22 22
- 0.078248 2 3 cbr 210 ------- 1 0.0 3.0 22 22
r 0.078256 2 3 cbr 210 ------- 1 0.0 3.0 10 10
+ 0.07896 0 1 cbr 210 ------- 1 0.0 3.0 47 47
- 0.07896 0 1 cbr 210 ------- 1 0.0 3.0 47 47
r 0.078968 0 1 cbr 210 ------- 1 0.0 3.0 35 35
+ 0.078968 1 2 cbr 210 ------- 1 0.0 3.0 35 35
- 0.078968 1 2 cbr 210 ------- 1 0.0 3.0 35 35
r 0.079928 1 2 cbr 210 ------- 1 0.0 3.0 23 23
+ 0.079928 2 3 cbr 210 ------- 1 0.0 3.0 23 23
- 0.079928 2 3 cbr 210 ------- 1 0.0 3.0 23 23
r 0.079936 2 3 cbr 210 ------- 1 0.0 3.0 11 11
+ 0.08064 0 1 cbr 210 ------- 1 0.0 3.0 48 48
- 0.08064 0 1 cbr 210 ------- 1 0.0 3.0 48 48
r 0.080648 0 1 cbr 210 ------- 1 0.0 3.0 36 36
+ 0.080648 1 2 cbr 210 ------- 1 0.0 3.0 36 36
- 0.080648 1 2 cbr 210 ------- 1 0.0 3.0 36 36
r 0.081608 1 2 cbr 210 ------- 1 0.0 3.0 24 24
+ 0.081608 2 3 cbr 210 ------- 1 0.0 3.0 24 24
- 0.081608 2 3 cbr 210 ------- 1 0.0 3.0 24 24
r 0.081616 2 3 cbr 210 ------- 1 0.0 3.0 12 12
+ 0.08232 0 1 cbr 210 ------- 1 0.0 3.0 49 49
- 0.08232 0 1 cbr 210 ------- 1 0.0 3.0 49 49
r 0.082328 0 1 cbr 210 ------- 1 0.0 3.0 37 37
+ 0.082328 1 2 cbr 210 ------- 1 0.0 3.0 37 37
- 0.082328 1 2 cbr 210 ------- 1 0.0 3.0 37 37
r 0.083288 1 2 cbr 210 ------- 1 0.0 3.0 25 25
+ 0.083288 2 3 cbr 210 ------- 1 0.0 3.0 25 25
- 0.083288 2 3 cbr 210 ------- 1 0.0 3.0 25 25
r 0.083296 2 3 cbr 210 ------- 1 0.0 3.0 13 13
+ 0.084 0 1 cbr 210 ------- 1 0.0 3.0 50 50
- 0.084 0 1 cbr 210 ------- 1 0.0 3.0 50 50
r 0.084008 0 1 cbr 210 ------- 1 0.0 3.0 38 38
+ 0.084008 1 2 cbr 210 ------- 1 0.0 3.0 38 38
- 0.084008 1 2 cbr 210 ------- 1 0.0 3.0 38 38
r 0.084968 1 2 cbr 210 ------- 1 0.0 3.0 26 26
+ 0.084968 2 3 cbr 210 ------- 1 0.0 3.0 26 26
- 0.084968 2 3 cbr 210 ------- 1 0.0 3.0 26 26
r 0.084976 2 3 cbr 210 ------- 1 0.0 3.0 14 14
+ 0.08568 0 1 cbr 210 ------- 1 0.0 3.0 51 51
- 0.08568 0 1 cbr 210 ------- 1 0.0 3.0 51 51
r 0.085688 0 1 cbr 210 ------- 1 0.0 3.0 39 39
+ 0.085688 1 2 cbr 210 ------- 1 0.0 3.0 39 39
- 0.085688 1 2 cbr 210 ------- 1 0.0 3.0 39 39
r 0.086648 1 2 cbr 210 ------- 1 0.0 3.0 27 27
+ 0.086648 2 3 cbr 210 ------- 1 0.0 3.0 27 27
- 0.086648 2 3 cbr 210 ------- 1 0.0 3.0 27 27
r 0.086656 2 3 cbr 210 ------- 1 0.0 3.0 15 15
+ 0.08736 0 1 cbr 210 ------- 1 0.0 3.0 52 52
- 0.08736 0 1 cbr 210 ------- 1 0.0 3.0 52 52
r 0.087368 0 1 cbr 210 ------- 1 0.0 3.0 40 40
+ 0.087368 1 2 cbr 210 ------- 1 0.0 3.0 40 40
- 0.087368 1 2 cbr 210 ------- 1 0.0 3.0 40 40
r 0.088328 1 2 cbr 210 ------- 1 0.0 3.0 28 28
+ 0.088328 2 3 cbr 210 ------- 1 0.0 3.0 28 28
- 0.088328 2 3 cbr 210 ------- 1 0.0 3.0 28 28
r 0.088336 2 3 cbr 210 ------- 1 0.0 3.0 16 16
+ 0.08904 0 1 cbr 210 ------- 1 0.0 3.0 53 53
- 0.08904 0 1 cbr 210 ------- 1 0.0 3.0 53 53
r 0.089048 0 1 cbr 210 ------- 1 0.0 3.0 41 41
+ 0.089048 1 2 cbr 210 ------- 1 0.0 3.0 41 41
- 0.089048 1 2 cbr 210 ------- 1 0.0 3.0 41 41
r 0.090008 1 2 cbr 210 ------- 1 0.0 3.0 29 29
+ 0.090008 2 3 cbr 210 ------- 1 0.0 3.0 29 29
- 0.090008 2 3 cbr 210 ------- 1 0.0 3.0 29 29
r 0.090016 2 3 cbr 210 ------- 1 0.0 3.0 17 17
+ 0.09072 0 1 cbr 210 ------- 1 0.0 3.0 54 54
- 0.09072 0 1 cbr 210 ------- 1 0.0 3.0 54 54
r 0.090728 0 1 cbr 210 ------- 1 0.0 3.0 42 42
+ 0.090728 1 2 cbr 210 ------- 1 0.0 3.0 42 42
- 0.090728 1 2 cbr 210 ------- 1 0.0 3.0 42 42
r 0.091688 1 2 cbr 210 ------- 1 0.0 3.0 30 30
+ 0.091688 2 3 cbr 210 ------- 1 0.0 3.0 30 30
- 0.091688 2 3 cbr 210 ------- 1 0.0 3.0 30 30
r 0.091696 2 3 cbr 210 ------- 1 0.0 3.0 18 18
+ 0.0924 0 1 cbr 210 ------- 1 0.0 3.0 55 55
- 0.0924 0 1 cbr 210 ------- 1 0.0 3.0 55 55
r 0.092408 0 1 cbr 210 ------- 1 0.0 3.0 43 43
+ 0.092408 1 2 cbr 210 ------- 1 0.0 3.0 43 43
- 0.092408 1 2 cbr 210 ------- 1 0.0 3.0 43 43
r 0.093368 1 2 cbr 210 ------- 1 0.0 3.0 31 31
+ 0.093368 2 3 cbr 210 ------- 1 0.0 3.0 31 31
- 0.093368 2 3 cbr 210 ------- 1 0.0 3.0 31 31
r 0.093376 2 3 cbr 210 ------- 1 0.0 3.0 19 19
+ 0.09408 0 1 cbr 210 ------- 1 0.0 3.0 56 56
- 0.09408 0 1 cbr 210 ------- 1 0.0 3.0 56 56
r 0.094088 0 1 cbr 210 ------- 1 0.0 3.0 44 44
+ 0.094088 1 2 cbr 210 ------- 1 0.0 3.0 44 44
- 0.094088 1 2 cbr 210 ------- 1 0.0 3.0 44 44
r 0.095048 1 2 cbr 210 ------- 1 0.0 3.0 32 32
+ 0.095048 2 3 cbr 210 ------- 1 0.0 3.0 32 32
- 0.095048 2 3 cbr 210 ------- 1 0.0 3.0 32 32
r 0.095056 2 3 cbr 210 ------- 1 0.0 3.0 20 20
+ 0.09576 0 1 cbr 210 ------- 1 0.0 3.0 57 57
- 0.09576 0 1 cbr 210 ------- 1 0.0 3.0 57 57
r 0.095768 0 1 cbr 210 ------- 1 0.0 3.0 45 45
+ 0.095768 1 2 cbr 210 ------- 1 0.0 3.0 45 45
- 0.095768 1 2 cbr 210 ------- 1 0.0 3.0 45 45
r 0.096728 1 2 cbr 210 ------- 1 0.0 3.0 33 33
+ 0.096728 2 3 cbr 210 ------- 1 0.0 3.0 33 33
- 0.096728 2 3 cbr 210 ------- 1 0.0 3.0 33 33
r 0.096736 2 3 cbr 210 ------- 1 0.0 3.0 21 21
+ 0.09744 0 1 cbr 210 ------- 1 0.0 3.0 58 58
- 0.09744 0 1 cbr 210 ------- 1 0.0 3.0 58 58
r 0.097448 0 1 cbr 210 ------- 1 0.0 3.0 46 46
+ 0.097448 1 2 cbr 210 ------- 1 0.0 3.0 46 46
- 0.097448 1 2 cbr 210 ------- 1 0.0 3.0 46 46
r 0.098408 1 2 cbr 210 ------- 1 0.0 3.0 34 34
+ 0.098408 2 3 cbr 210 ------- 1 0.0 3.0 34 34
- 0.098408 2 3 cbr 210 ------- 1 0.0 3.0 34 34
r 0.098416 2 3 cbr 210 ------- 1 0.0 3.0 22 22
+ 0.09912 0 1 cbr 210 ------- 1 0.0 3.0 59 59
- 0.09912 0 1 cbr 210 ------- 1 0.0 3.0 59 59
r 0.099128 0 1 cbr 210 ------- 1 0.0 3.0 47 47
+ 0.099128 1 2 cbr 210 ------- 1 0.0 3.0 47 47
- 0.099128 1 2 cbr 210 ------- 1 0.0 3.0 47 47
+ 0.1 4 1 cbr 1000 ------- 2 4.0 5.0 0 60
- 0.1 4 1 cbr 1000 ------- 2 4.0 5.0 0 60
r 0.100088 1 2 cbr 210 ------- 1 0.0 3.0 35 35
+ 0.100088 2 3 cbr 210 ------- 1 0.0 3.0 35 35
- 0.100088 2 3 cbr 210 ------- 1 0.0 3.0 35 35
r 0.100096 2 3 cbr 210 ------- 1 0.0 3.0 23 23
+ 0.1008 0 1 cbr 210 ------- 1 0.0 3.0 60 61
- 0.1008 0 1 cbr 210 ------- 1 0.0 3.0 60 61
r 0.100808 0 1 cbr 210 ------- 1 0.0 3.0 48 48
+ 0.100808 1 2 cbr 210 ------- 1 0.0 3.0 48 48
- 0.100808 1 2 cbr 210 ------- 1 0.0 3.0 48 48
r 0.101768 1 2 cbr 210 ------- 1 0.0 3.0 36 36
+ 0.101768 2 3 cbr 210 ------- 1 0.0 3.0 36 36
- 0.101768 2 3 cbr 210 ------- 1 0.0 3.0 36 36
r 0.101776 2 3 cbr 210 ------- 1 0.0 3.0 24 24
+ 0.10248 0 1 cbr 210 ------- 1 0.0 3.0 61 62
- 0.10248 0 1 cbr 210 ------- 1 0.0 3.0 61 62
r 0.102488 0 1 cbr 210 ------- 1 0.0 3.0 49 49
+ 0.102488 1 2 cbr 210 ------- 1 0.0 3.0 49 49
- 0.102488 1 2 cbr 210 ------- 1 0.0 3.0 49 49
r 0.103448 1 2 cbr 210 ------- 1 0.0 3.0 37 37
+ 0.103448 2 3 cbr 210 ------- 1 0.0 3.0 37 37
- 0.103448 2 3 cbr 210 ------- 1 0.0 3.0 37 37
r 0.103456 2 3 cbr 210 ------- 1 0.0 3.0 25 25
+ 0.10416 0 1 cbr 210 ------- 1 0.0 3.0 62 63
- 0.10416 0 1 cbr 210 ------- 1 0.0 3.0 62 63
r 0.104168 0 1 cbr 210 ------- 1 0.0 3.0 50 50
+ 0.104168 1 2 cbr 210 ------- 1 0.0 3.0 50 50
- 0.104168 1 2 cbr 210 ------- 1 0.0 3.0 50 50
r 0.105128 1 2 cbr 210 ------- 1 0.0 3.0 38 38
+ 0.105128 2 3 cbr 210 ------- 1 0.0 3.0 38 38
- 0.105128 2 3 cbr 210 ------- 1 0.0 3.0 38 38
r 0.105136 2 3 cbr 210 ------- 1 0.0 3.0 26 26
+ 0.10584 0 1 cbr 210 ------- 1 0.0 3.0 63 64
- 0.10584 0 1 cbr 210 ------- 1 0.0 3.0 63 64
r 0.105848 0 1 cbr 210 ------- 1 0.0 3.0 51 51
+ 0.105848 1 2 cbr 210 ------- 1 0.0 3.0 51 51
- 0.105848 1 2 cbr 210 ------- 1 0.0 3.0 51 51
r 0.106808 1 2 cbr 210 ------- 1 0.0 3.0 39 39
+ 0.106808 2 3 cbr 210 ------- 1 0.0 3.0 39 39
- 0.106808 2 3 cbr 210 ------- 1 0.0 3.0 39 39
r 0.106816 2 3 cbr 210 ------- 1 0.0 3.0 27 27
+ 0.10752 0 1 cbr 210 ------- 1 0.0 3.0 64 65
- 0.10752 0 1 cbr 210 ------- 1 0.0 3.0 64 65
r 0.107528 0 1 cbr 210 ------- 1 0.0 3.0 52 52
+ 0.107528 1 2 cbr 210 ------- 1 0.0 3.0 52 52
- 0.107528 1 2 cbr 210 ------- 1 0.0 3.0 52 52
+ 0.108 4 1 cbr 1000 ------- 2 4.0 5.0 1 66
- 0.108 4 1 cbr 1000 ------- 2 4.0 5.0 1 66
r 0.108488 1 2 cbr 210 ------- 1 0.0 3.0 40 40
+ 0.108488 2 3 cbr 210 ------- 1 0.0 3.0 40 40
- 0.108488 2 3 cbr 210 ------- 1 0.0 3.0 40 40
r 0.108496 2 3 cbr 210 ------- 1 0.0 3.0 28 28
+ 0.1092 0 1 cbr 210 ------- 1 0.0 3.0 65 67
- 0.1092 0 1 cbr 210 ------- 1 0.0 3.0 65 67
r 0.109208 0 1 cbr 210 ------- 1 0.0 3.0 53 53
+ 0.109208 1 2 cbr 210 ------- 1 0.0 3.0 53 53
- 0.109208 1 2 cbr 210 ------- 1 0.0 3.0 53 53
r 0.110168 1 2 cbr 210 ------- 1 0.0 3.0 41 41
+ 0.110168 2 3 cbr 210 ------- 1 0.0 3.0 41 41
- 0.110168 2 3 cbr 210 ------- 1 0.0 3.0 41 41
r 0.110176 2 3 cbr 210 ------- 1 0.0 3.0 29 29
+ 0.11088 0 1 cbr 210 ------- 1 0.0 3.0 66 68
- 0.11088 0 1 cbr 210 ------- 1 0.0 3.0 66 68
r 0.110888 0 1 cbr 210 ------- 1 0.0 3.0 54 54
+ 0.110888 1 2 cbr 210 ------- 1 0.0 3.0 54 54
- 0.110888 1 2 cbr 210 ------- 1 0.0 3.0 54 54
r 0.111848 1 2 cbr 210 ------- 1 0.0 3.0 42 42
+ 0.111848 2 3 cbr 210 ------- 1 0.0 3.0 42 42
- 0.111848 2 3 cbr 210 ------- 1 0.0 3.0 42 42
r 0.111856 2 3 cbr 210 ------- 1 0.0 3.0 30 30
+ 0.11256 0 1 cbr 210 ------- 1 0.0 3.0 67 69
- 0.11256 0 1 cbr 210 ------- 1 0.0 3.0 67 69
r 0.112568 0 1 cbr 210 ------- 1 0.0 3.0 55 55
+ 0.112568 1 2 cbr 210 ------- 1 0.0 3.0 55 55
- 0.112568 1 2 cbr 210 ------- 1 0.0 3.0 55 55
r 0.113528 1 2 cbr 210 ------- 1 0.0 3.0 43 43
+ 0.113528 2 3 cbr 210 ------- 1 0.0 3.0 43 43
- 0.113528 2 3 cbr 210 ------- 1 0.0 3.0 43 43
r 0.113536 2 3 cbr 210 ------- 1 0.0 3.0 31 31
+ 0.11424 0 1 cbr 210 ------- 1 0.0 3.0 68 70
- 0.11424 0 1 cbr 210 ------- 1 0.0 3.0 68 70
r 0.114248 0 1 cbr 210 ------- 1 0.0 3.0 56 56
+ 0.114248 1 2 cbr 210 ------- 1 0.0 3.0 56 56
- 0.114248 1 2 cbr 210 ------- 1 0.0 3.0 56 56
r 0.115208 1 2 cbr 210 ------- 1 0.0 3.0 44 44
+ 0.115208 2 3 cbr 210 ------- 1 0.0 3.0 44 44
- 0.115208 2 3 cbr 210 ------- 1 0.0 3.0 44 44
r 0.115216 2 3 cbr 210 ------- 1 0.0 3.0 32 32
+ 0.11592 0 1 cbr 210 ------- 1 0.0 3.0 69 71
- 0.11592 0 1 cbr 210 ------- 1 0.0 3.0 69 71
r 0.115928 0 1 cbr 210 ------- 1 0.0 3.0 57 57
+ 0.115928 1 2 cbr 210 ------- 1 0.0 3.0 57 57
- 0.115928 1 2 cbr 210 ------- 1 0.0 3.0 57 57
+ 0.116 4 1 cbr 1000 ------- 2 4.0 5.0 2 72
- 0.116 4 1 cbr 1000 ------- 2 4.0 5.0 2 72
r 0.116888 1 2 cbr 210 ------- 1 0.0 3.0 45 45
+ 0.116888 2 3 cbr 210 ------- 1 0.0 3.0 45 45
- 0.116888 2 3 cbr 210 ------- 1 0.0 3.0 45 45
r 0.116896 2 3 cbr 210 ------- 1 0.0 3.0 33 33
+ 0.1176 0 1 cbr 210 ------- 1 0.0 3.0 70 73
- 0.1176 0 1 cbr 210 ------- 1 0.0 3.0 70 73
r 0.117608 0 1 cbr 210 ------- 1 0.0 3.0 58 58
+ 0.117608 1 2 cbr 210 ------- 1 0.0 3.0 58 58
- 0.117608 1 2 cbr 210 ------- 1 0.0 3.0 58 58
r 0.118568 1 2 cbr 210 ------- 1 0.0 3.0 46 46
+ 0.118568 2 3 cbr 210 ------- 1 0.0 3.0 46 46
- 0.118568 2 3 cbr 210 ------- 1 0.0 3.0 46 46
r 0.118576 2 3 cbr 210 ------- 1 0.0 3.0 34 34
+ 0.11928 0 1 cbr 210 ------- 1 0.0 3.0 71 74
- 0.11928 0 1 cbr 210 ------- 1 0.0 3.0 71 74
r 0.119288 0 1 cbr 210 ------- 1 0.0 3.0 59 59
+ 0.119288 1 2 cbr 210 ------- 1 0.0 3.0 59 59
- 0.119288 1 2 cbr 210 ------- 1 0.0 3.0 59 59
r 0.120248 1 2 cbr 210 ------- 1 0.0 3.0 47 47
+ 0.120248 2 3 cbr 210 ------- 1 0.0 3.0 47 47
- 0.120248 2 3 cbr 210 ------- 1 0.0 3.0 47 47
r 0.120256 2 3 cbr 210 ------- 1 0.0 3.0 35 35
r 0.1208 4 1 cbr 1000 ------- 2 4.0 5.0 0 60
+ 0.1208 1 2 cbr 1000 ------- 2 4.0 5.0 0 60
- 0.1208 1 2 cbr 1000 ------- 2 4.0 5.0 0 60
+ 0.12096 0 1 cbr 210 ------- 1 0.0 3.0 72 75
- 0.12096 0 1 cbr 210 ------- 1 0.0 3.0 72 75
r 0.120968 0 1 cbr 210 ------- 1 0.0 3.0 60 61
+ 0.120968 1 2 cbr 210 ------- 1 0.0 3.0 60 61
r 0.121928 1 2 cbr 210 ------- 1 0.0 3.0 48 48
+ 0.121928 2 3 cbr 210 ------- 1 0.0 3.0 48 48
- 0.121928 2 3 cbr 210 ------- 1 0.0 3.0 48 48
r 0.121936 2 3 cbr 210 ------- 1 0.0 3.0 36 36
+ 0.12264 0 1 cbr 210 ------- 1 0.0 3.0 73 76
- 0.12264 0 1 cbr 210 ------- 1 0.0 3.0 73 76
r 0.122648 0 1 cbr 210 ------- 1 0.0 3.0 61 62
+ 0.122648 1 2 cbr 210 ------- 1 0.0 3.0 61 62
r 0.123608 1 2 cbr 210 ------- 1 0.0 3.0 49 49
+ 0.123608 2 3 cbr 210 ------- 1 0.0 3.0 49 49
- 0.123608 2 3 cbr 210 ------- 1 0.0 3.0 49 49
r 0.123616 2 3 cbr 210 ------- 1 0.0 3.0 37 37
+ 0.124 4 1 cbr 1000 ------- 2 4.0 5.0 3 77
- 0.124 4 1 cbr 1000 ------- 2 4.0 5.0 3 77
+ 0.12432 0 1 cbr 210 ------- 1 0.0 3.0 74 78
- 0.12432 0 1 cbr 210 ------- 1 0.0 3.0 74 78
r 0.124328 0 1 cbr 210 ------- 1 0.0 3.0 62 63
+ 0.124328 1 2 cbr 210 ------- 1 0.0 3.0 62 63
r 0.125288 1 2 cbr 210 ------- 1 0.0 3.0 50 50
+ 0.125288 2 3 cbr 210 ------- 1 0.0 3.0 50 50
- 0.125288 2 3 cbr 210 ------- 1 0.0 3.0 50 50
r 0.125296 2 3 cbr 210 ------- 1 0.0 3.0 38 38
+ 0.126 0 1 cbr 210 ------- 1 0.0 3.0 75 79
- 0.126 0 1 cbr 210 ------- 1 0.0 3.0 75 79
r 0.126008 0 1 cbr 210 ------- 1 0.0 3.0 63 64
+ 0.126008 1 2 cbr 210 ------- 1 0.0 3.0 63 64
- 0.126133 1 2 cbr 210 ------- 1 0.0 3.0 60 61
r 0.126968 1 2 cbr 210 ------- 1 0.0 3.0 51 51
+ 0.126968 2 3 cbr 210 ------- 1 0.0 3.0 51 51
- 0.126968 2 3 cbr 210 ------- 1 0.0 3.0 51 51
r 0.126976 2 3 cbr 210 ------- 1 0.0 3.0 39 39
- 0.127253 1 2 cbr 210 ------- 1 0.0 3.0 61 62
+ 0.12768 0 1 cbr 210 ------- 1 0.0 3.0 76 80
- 0.12768 0 1 cbr 210 ------- 1 0.0 3.0 76 80
r 0.127688 0 1 cbr 210 ------- 1 0.0 3.0 64 65
+ 0.127688 1 2 cbr 210 ------- 1 0.0 3.0 64 65
- 0.128373 1 2 cbr 210 ------- 1 0.0 3.0 62 63
r 0.128648 1 2 cbr 210 ------- 1 0.0 3.0 52 52
+ 0.128648 2 3 cbr 210 ------- 1 0.0 3.0 52 52
- 0.128648 2 3 cbr 210 ------- 1 0.0 3.0 52 52
r 0.128656 2 3 cbr 210 ------- 1 0.0 3.0 40 40
r 0.1288 4 1 cbr 1000 ------- 2 4.0 5.0 1 66
+ 0.1288 1 2 cbr 1000 ------- 2 4.0 5.0 1 66
+ 0.12936 0 1 cbr 210 ------- 1 0.0 3.0 77 81
- 0.12936 0 1 cbr 210 ------- 1 0.0 3.0 77 81
r 0.129368 0 1 cbr 210 ------- 1 0.0 3.0 65 67
+ 0.129368 1 2 cbr 210 ------- 1 0.0 3.0 65 67
- 0.129493 1 2 cbr 210 ------- 1 0.0 3.0 63 64
r 0.130328 1 2 cbr 210 ------- 1 0.0 3.0 53 53
+ 0.130328 2 3 cbr 210 ------- 1 0.0 3.0 53 53
- 0.130328 2 3 cbr 210 ------- 1 0.0 3.0 53 53
r 0.130336 2 3 cbr 210 ------- 1 0.0 3.0 41 41
- 0.130613 1 2 cbr 210 ------- 1 0.0 3.0 64 65
+ 0.13104 0 1 cbr 210 ------- 1 0.0 3.0 78 82
- 0.13104 0 1 cbr 210 ------- 1 0.0 3.0 78 82
r 0.131048 0 1 cbr 210 ------- 1 0.0 3.0 66 68
+ 0.131048 1 2 cbr 210 ------- 1 0.0 3.0 66 68
- 0.131733 1 2 cbr 1000 ------- 2 4.0 5.0 1 66
+ 0.132 4 1 cbr 1000 ------- 2 4.0 5.0 4 83
- 0.132 4 1 cbr 1000 ------- 2 4.0 5.0 4 83
r 0.132008 1 2 cbr 210 ------- 1 0.0 3.0 54 54
+ 0.132008 2 3 cbr 210 ------- 1 0.0 3.0 54 54
- 0.132008 2 3 cbr 210 ------- 1 0.0 3.0 54 54
r 0.132016 2 3 cbr 210 ------- 1 0.0 3.0 42 42
+ 0.13272 0 1 cbr 210 ------- 1 0.0 3.0 79 84
- 0.13272 0 1 cbr 210 ------- 1 0.0 3.0 79 84
r 0.132728 0 1 cbr 210 ------- 1 0.0 3.0 67 69
+ 0.132728 1 2 cbr 210 ------- 1 0.0 3.0 67 69
r 0.133688 1 2 cbr 210 ------- 1 0.0 3.0 55 55
+ 0.133688 2 3 cbr 210 ------- 1 0.0 3.0 55 55
- 0.133688 2 3 cbr 210 ------- 1 0.0 3.0 55 55
r 0.133696 2 3 cbr 210 ------- 1 0.0 3.0 43 43
+ 0.1344 0 1 cbr 210 ------- 1 0.0 3.0 80 85
- 0.1344 0 1 cbr 210 ------- 1 0.0 3.0 80 85
r 0.134408 0 1 cbr 210 ------- 1 0.0 3.0 68 70
+ 0.134408 1 2 cbr 210 ------- 1 0.0 3.0 68 70
r 0.135368 1 2 cbr 210 ------- 1 0.0 3.0 56 56
+ 0.135368 2 3 cbr 210 ------- 1 0.0 3.0 56 56
- 0.135368 2 3 cbr 210 ------- 1 0.0 3.0 56 56
r 0.135376 2 3 cbr 210 ------- 1 0.0 3.0 44 44
+ 0.13608 0 1 cbr 210 ------- 1 0.0 3.0 81 86
- 0.13608 0 1 cbr 210 ------- 1 0.0 3.0 81 86
r 0.136088 0 1 cbr 210 ------- 1 0.0 3.0 69 71
+ 0.136088 1 2 cbr 210 ------- 1 0.0 3.0 69 71
r 0.1368 4 1 cbr 1000 ------- 2 4.0 5.0 2 72
+ 0.1368 1 2 cbr 1000 ------- 2 4.0 5.0 2 72
r 0.137048 1 2 cbr 210 ------- 1 0.0 3.0 57 57
+ 0.137048 2 3 cbr 210 ------- 1 0.0 3.0 57 57
- 0.137048 2 3 cbr 210 ------- 1 0.0 3.0 57 57
r 0.137056 2 3 cbr 210 ------- 1 0.0 3.0 45 45
- 0.137067 1 2 cbr 210 ------- 1 0.0 3.0 65 67
+ 0.13776 0 1 cbr 210 ------- 1 0.0 3.0 82 87
- 0.13776 0 1 cbr 210 ------- 1 0.0 3.0 82 87
r 0.137768 0 1 cbr 210 ------- 1 0.0 3.0 70 73
+ 0.137768 1 2 cbr 210 ------- 1 0.0 3.0 70 73
- 0.138187 1 2 cbr 210 ------- 1 0.0 3.0 66 68
r 0.138728 1 2 cbr 210 ------- 1 0.0 3.0 58 58
+ 0.138728 2 3 cbr 210 ------- 1 0.0 3.0 58 58
- 0.138728 2 3 cbr 210 ------- 1 0.0 3.0 58 58
r 0.138736 2 3 cbr 210 ------- 1 0.0 3.0 46 46
- 0.139307 1 2 cbr 210 ------- 1 0.0 3.0 67 69
+ 0.13944 0 1 cbr 210 ------- 1 0.0 3.0 83 88
- 0.13944 0 1 cbr 210 ------- 1 0.0 3.0 83 88
r 0.139448 0 1 cbr 210 ------- 1 0.0 3.0 71 74
+ 0.139448 1 2 cbr 210 ------- 1 0.0 3.0 71 74
+ 0.14 4 1 cbr 1000 ------- 2 4.0 5.0 5 89
- 0.14 4 1 cbr 1000 ------- 2 4.0 5.0 5 89
r 0.140408 1 2 cbr 210 ------- 1 0.0 3.0 59 59
+ 0.140408 2 3 cbr 210 ------- 1 0.0 3.0 59 59
- 0.140408 2 3 cbr 210 ------- 1 0.0 3.0 59 59
r 0.140416 2 3 cbr 210 ------- 1 0.0 3.0 47 47
- 0.140427 1 2 cbr 210 ------- 1 0.0 3.0 68 70
+ 0.14112 0 1 cbr 210 ------- 1 0.0 3.0 84 90
- 0.14112 0 1 cbr 210 ------- 1 0.0 3.0 84 90
r 0.141128 0 1 cbr 210 ------- 1 0.0 3.0 72 75
+ 0.141128 1 2 cbr 210 ------- 1 0.0 3.0 72 75
- 0.141547 1 2 cbr 210 ------- 1 0.0 3.0 69 71
r 0.142096 2 3 cbr 210 ------- 1 0.0 3.0 48 48
- 0.142667 1 2 cbr 1000 ------- 2 4.0 5.0 2 72
+ 0.1428 0 1 cbr 210 ------- 1 0.0 3.0 85 91
- 0.1428 0 1 cbr 210 ------- 1 0.0 3.0 85 91
r 0.142808 0 1 cbr 210 ------- 1 0.0 3.0 73 76
+ 0.142808 1 2 cbr 210 ------- 1 0.0 3.0 73 76
r 0.143776 2 3 cbr 210 ------- 1 0.0 3.0 49 49
+ 0.14448 0 1 cbr 210 ------- 1 0.0 3.0 86 92
- 0.14448 0 1 cbr 210 ------- 1 0.0 3.0 86 92
r 0.144488 0 1 cbr 210 ------- 1 0.0 3.0 74 78
+ 0.144488 1 2 cbr 210 ------- 1 0.0 3.0 74 78
r 0.1448 4 1 cbr 1000 ------- 2 4.0 5.0 3 77
+ 0.1448 1 2 cbr 1000 ------- 2 4.0 5.0 3 77
r 0.145456 2 3 cbr 210 ------- 1 0.0 3.0 50 50