+ 0 1 2 cbr 210 ------- 6 1.0 2.0 0 0
- 0 1 2 cbr 210 ------- 6 1.0 2.0 0 0
+ 0.000258 1 2 cbr 210 ------- 6 1.0 2.0 1 1
+ 0.000517 1 2 cbr 210 ------- 6 1.0 2.0 2 2
+ 0.000775 1 2 cbr 210 ------- 6 1.0 2.0 3 3
+ 0.001034 1 2 cbr 210 ------- 6 1.0 2.0 4 4
+ 0.001292 1 2 cbr 210 ------- 6 1.0 2.0 5 5
+ 0.001551 1 2 cbr 210 ------- 6 1.0 2.0 6 6
- 0.00168 1 2 cbr 210 ------- 6 1.0 2.0 1 1
+ 0.001809 1 2 cbr 210 ------- 6 1.0 2.0 7 7
+ 0.002068 1 2 cbr 210 ------- 6 1.0 2.0 8 8
+ 0.002326 1 2 cbr 210 ------- 6 1.0 2.0 9 9
+ 0.002585 1 2 cbr 210 ------- 6 1.0 2.0 10 10
+ 0.002843 1 2 cbr 210 ------- 6 1.0 2.0 11 11
+ 0.003102 1 2 cbr 210 ------- 6 1.0 2.0 12 12
- 0.00336 1 2 cbr 210 ------- 6 1.0 2.0 2 2
+ 0.00336 1 2 cbr 210 ------- 6 1.0 2.0 13 13
+ 0.003618 1 2 cbr 210 ------- 6 1.0 2.0 14 14
+ 0.003877 1 2 cbr 210 ------- 6 1.0 2.0 15 15
+ 0.004135 1 2 cbr 210 ------- 6 1.0 2.0 16 16
+ 0.004394 1 2 cbr 210 ------- 6 1.0 2.0 17 17
+ 0.004652 1 2 cbr 210 ------- 6 1.0 2.0 18 18
+ 0.004911 1 2 cbr 210 ------- 6 1.0 2.0 19 19
- 0.00504 1 2 cbr 210 ------- 6 1.0 2.0 3 3
+ 0.005169 1 2 cbr 210 ------- 6 1.0 2.0 20 20
+ 0.005428 1 2 cbr 210 ------- 6 1.0 2.0 21 21
+ 0.005686 1 2 cbr 210 ------- 6 1.0 2.0 22 22
+ 0.005945 1 2 cbr 210 ------- 6 1.0 2.0 23 23
d 0.005945 1 2 cbr 210 ------- 6 1.0 2.0 23 23
+ 0.006203 1 2 cbr 210 ------- 6 1.0 2.0 24 24
d 0.006203 1 2 cbr 210 ------- 6 1.0 2.0 24 24
+ 0.006462 1 2 cbr 210 ------- 6 1.0 2.0 25 25
d 0.006462 1 2 cbr 210 ------- 6 1.0 2.0 25 25
+ 0.00672 1 2 cbr 210 ------- 6 1.0 2.0 26 26
d 0.00672 1 2 cbr 210 ------- 6 1.0 2.0 26 26
- 0.00672 1 2 cbr 210 ------- 6 1.0 2.0 4 4
+ 0.006978 1 2 cbr 210 ------- 6 1.0 2.0 27 27
+ 0.007237 1 2 cbr 210 ------- 6 1.0 2.0 28 28
d 0.007237 1 2 cbr 210 ------- 6 1.0 2.0 28 28
+ 0.007495 1 2 cbr 210 ------- 6 1.0 2.0 29 29
d 0.007495 1 2 cbr 210 ------- 6 1.0 2.0 29 29
+ 0.007754 1 2 cbr 210 ------- 6 1.0 2.0 30 30
d 0.007754 1 2 cbr 210 ------- 6 1.0 2.0 30 30
+ 0.008012 1 2 cbr 210 ------- 6 1.0 2.0 31 31
d 0.008012 1 2 cbr 210 ------- 6 1.0 2.0 31 31
+ 0.008271 1 2 cbr 210 ------- 6 1.0 2.0 32 32
d 0.008271 1 2 cbr 210 ------- 6 1.0 2.0 32 32
- 0.0084 1 2 cbr 210 ------- 6 1.0 2.0 5 5
+ 0.008529 1 2 cbr 210 ------- 6 1.0 2.0 33 33
+ 0.008788 1 2 cbr 210 ------- 6 1.0 2.0 34 34
d 0.008788 1 2 cbr 210 ------- 6 1.0 2.0 34 34
+ 0.009046 1 2 cbr 210 ------- 6 1.0 2.0 35 35
d 0.009046 1 2 cbr 210 ------- 6 1.0 2.0 35 35
+ 0.009305 1 2 cbr 210 ------- 6 1.0 2.0 36 36
d 0.009305 1 2 cbr 210 ------- 6 1.0 2.0 36 36
+ 0.009563 1 2 cbr 210 ------- 6 1.0 2.0 37 37
d 0.009563 1 2 cbr 210 ------- 6 1.0 2.0 37 37
+ 0.009822 1 2 cbr 210 ------- 6 1.0 2.0 38 38
d 0.009822 1 2 cbr 210 ------- 6 1.0 2.0 38 38
+ 0.01008 1 2 cbr 210 ------- 6 1.0 2.0 39 39
d 0.01008 1 2 cbr 210 ------- 6 1.0 2.0 39 39
- 0.01008 1 2 cbr 210 ------- 6 1.0 2.0 6 6
+ 0.010338 1 2 cbr 210 ------- 6 1.0 2.0 40 40
+ 0.010597 1 2 cbr 210 ------- 6 1.0 2.0 41 41
d 0.010597 1 2 cbr 210 ------- 6 1.0 2.0 41 41
+ 0.010855 1 2 cbr 210 ------- 6 1.0 2.0 42 42
d 0.010855 1 2 cbr 210 ------- 6 1.0 2.0 42 42
+ 0.011114 1 2 cbr 210 ------- 6 1.0 2.0 43 43
d 0.011114 1 2 cbr 210 ------- 6 1.0 2.0 43 43
+ 0.011372 1 2 cbr 210 ------- 6 1.0 2.0 44 44
d 0.011372 1 2 cbr 210 ------- 6 1.0 2.0 44 44
+ 0.011631 1 2 cbr 210 ------- 6 1.0 2.0 45 45
d 0.011631 1 2 cbr 210 ------- 6 1.0 2.0 45 45
- 0.01176 1 2 cbr 210 ------- 6 1.0 2.0 7 7
+ 0.011889 1 2 cbr 210 ------- 6 1.0 2.0 46 46
+ 0.012148 1 2 cbr 210 ------- 6 1.0 2.0 47 47
d 0.012148 1 2 cbr 210 ------- 6 1.0 2.0 47 47
+ 0.012406 1 2 cbr 210 ------- 6 1.0 2.0 48 48
d 0.012406 1 2 cbr 210 ------- 6 1.0 2.0 48 48
+ 0.012665 1 2 cbr 210 ------- 6 1.0 2.0 49 49
d 0.012665 1 2 cbr 210 ------- 6 1.0 2.0 49 49
+ 0.012923 1 2 cbr 210 ------- 6 1.0 2.0 50 50
d 0.012923 1 2 cbr 210 ------- 6 1.0 2.0 50 50
+ 0.013182 1 2 cbr 210 ------- 6 1.0 2.0 51 51
d 0.013182 1 2 cbr 210 ------- 6 1.0 2.0 51 51
- 0.01344 1 2 cbr 210 ------- 6 1.0 2.0 8 8
+ 0.01344 1 2 cbr 210 ------- 6 1.0 2.0 52 52
+ 0.013698 1 2 cbr 210 ------- 6 1.0 2.0 53 53
d 0.013698 1 2 cbr 210 ------- 6 1.0 2.0 53 53
+ 0.013957 1 2 cbr 210 ------- 6 1.0 2.0 54 54
d 0.013957 1 2 cbr 210 ------- 6 1.0 2.0 54 54
+ 0.014215 1 2 cbr 210 ------- 6 1.0 2.0 55 55
d 0.014215 1 2 cbr 210 ------- 6 1.0 2.0 55 55
+ 0.014474 1 2 cbr 210 ------- 6 1.0 2.0 56 56
d 0.014474 1 2 cbr 210 ------- 6 1.0 2.0 56 56
+ 0.014732 1 2 cbr 210 ------- 6 1.0 2.0 57 57
d 0.014732 1 2 cbr 210 ------- 6 1.0 2.0 57 57
+ 0.014991 1 2 cbr 210 ------- 6 1.0 2.0 58 58
d 0.014991 1 2 cbr 210 ------- 6 1.0 2.0 58 58
- 0.01512 1 2 cbr 210 ------- 6 1.0 2.0 9 9
+ 0.015249 1 2 cbr 210 ------- 6 1.0 2.0 59 59
+ 0.015508 1 2 cbr 210 ------- 6 1.0 2.0 60 60
d 0.015508 1 2 cbr 210 ------- 6 1.0 2.0 60 60
+ 0.015766 1 2 cbr 210 ------- 6 1.0 2.0 61 61
d 0.015766 1 2 cbr 210 ------- 6 1.0 2.0 61 61
+ 0.016025 1 2 cbr 210 ------- 6 1.0 2.0 62 62
d 0.016025 1 2 cbr 210 ------- 6 1.0 2.0 62 62
+ 0.016283 1 2 cbr 210 ------- 6 1.0 2.0 63 63
d 0.016283 1 2 cbr 210 ------- 6 1.0 2.0 63 63
+ 0.016542 1 2 cbr 210 ------- 6 1.0 2.0 64 64
d 0.016542 1 2 cbr 210 ------- 6 1.0 2.0 64 64
- 0.0168 1 2 cbr 210 ------- 6 1.0 2.0 10 10
+ 0.0168 1 2 cbr 210 ------- 6 1.0 2.0 65 65
+ 0.017058 1 2 cbr 210 ------- 6 1.0 2.0 66 66
d 0.017058 1 2 cbr 210 ------- 6 1.0 2.0 66 66
+ 0.017317 1 2 cbr 210 ------- 6 1.0 2.0 67 67
d 0.017317 1 2 cbr 210 ------- 6 1.0 2.0 67 67
+ 0.017575 1 2 cbr 210 ------- 6 1.0 2.0 68 68
d 0.017575 1 2 cbr 210 ------- 6 1.0 2.0 68 68
+ 0.017834 1 2 cbr 210 ------- 6 1.0 2.0 69 69
d 0.017834 1 2 cbr 210 ------- 6 1.0 2.0 69 69
+ 0.018092 1 2 cbr 210 ------- 6 1.0 2.0 70 70
d 0.018092 1 2 cbr 210 ------- 6 1.0 2.0 70 70
+ 0.018351 1 2 cbr 210 ------- 6 1.0 2.0 71 71
d 0.018351 1 2 cbr 210 ------- 6 1.0 2.0 71 71
- 0.01848 1 2 cbr 210 ------- 6 1.0 2.0 11 11
+ 0.018609 1 2 cbr 210 ------- 6 1.0 2.0 72 72
+ 0.018868 1 2 cbr 210 ------- 6 1.0 2.0 73 73
d 0.018868 1 2 cbr 210 ------- 6 1.0 2.0 73 73
+ 0.019126 1 2 cbr 210 ------- 6 1.0 2.0 74 74
d 0.019126 1 2 cbr 210 ------- 6 1.0 2.0 74 74
+ 0.019385 1 2 cbr 210 ------- 6 1.0 2.0 75 75
d 0.019385 1 2 cbr 210 ------- 6 1.0 2.0 75 75
+ 0.019643 1 2 cbr 210 ------- 6 1.0 2.0 76 76
d 0.019643 1 2 cbr 210 ------- 6 1.0 2.0 76 76
+ 0.019902 1 2 cbr 210 ------- 6 1.0 2.0 77 77
d 0.019902 1 2 cbr 210 ------- 6 1.0 2.0 77 77
+ 0.02016 1 2 cbr 210 ------- 6 1.0 2.0 78 78
d 0.02016 1 2 cbr 210 ------- 6 1.0 2.0 78 78
- 0.02016 1 2 cbr 210 ------- 6 1.0 2.0 12 12
+ 0.020418 1 2 cbr 210 ------- 6 1.0 2.0 79 79
+ 0.020677 1 2 cbr 210 ------- 6 1.0 2.0 80 80
d 0.020677 1 2 cbr 210 ------- 6 1.0 2.0 80 80
+ 0.020935 1 2 cbr 210 ------- 6 1.0 2.0 81 81
d 0.020935 1 2 cbr 210 ------- 6 1.0 2.0 81 81
+ 0.021194 1 2 cbr 210 ------- 6 1.0 2.0 82 82
d 0.021194 1 2 cbr 210 ------- 6 1.0 2.0 82 82
+ 0.021452 1 2 cbr 210 ------- 6 1.0 2.0 83 83
d 0.021452 1 2 cbr 210 ------- 6 1.0 2.0 83 83
r 0.02168 1 2 cbr 210 ------- 6 1.0 2.0 0 0
+ 0.021711 1 2 cbr 210 ------- 6 1.0 2.0 84 84
d 0.021711 1 2 cbr 210 ------- 6 1.0 2.0 84 84
- 0.02184 1 2 cbr 210 ------- 6 1.0 2.0 13 13
+ 0.021969 1 2 cbr 210 ------- 6 1.0 2.0 85 85
+ 0.022228 1 2 cbr 210 ------- 6 1.0 2.0 86 86
d 0.022228 1 2 cbr 210 ------- 6 1.0 2.0 86 86
+ 0.022486 1 2 cbr 210 ------- 6 1.0 2.0 87 87
d 0.022486 1 2 cbr 210 ------- 6 1.0 2.0 87 87
+ 0.022745 1 2 cbr 210 ------- 6 1.0 2.0 88 88
d 0.022745 1 2 cbr 210 ------- 6 1.0 2.0 88 88
+ 0.023003 1 2 cbr 210 ------- 6 1.0 2.0 89 89
d 0.023003 1 2 cbr 210 ------- 6 1.0 2.0 89 89
+ 0.023262 1 2 cbr 210 ------- 6 1.0 2.0 90 90
d 0.023262 1 2 cbr 210 ------- 6 1.0 2.0 90 90
r 0.02336 1 2 cbr 210 ------- 6 1.0 2.0 1 1
+ 0.02352 1 2 cbr 210 ------- 6 1.0 2.0 91 91
d 0.02352 1 2 cbr 210 ------- 6 1.0 2.0 91 91
- 0.02352 1 2 cbr 210 ------- 6 1.0 2.0 14 14
+ 0.023778 1 2 cbr 210 ------- 6 1.0 2.0 92 92
+ 0.024037 1 2 cbr 210 ------- 6 1.0 2.0 93 93
d 0.024037 1 2 cbr 210 ------- 6 1.0 2.0 93 93
+ 0.024295 1 2 cbr 210 ------- 6 1.0 2.0 94 94
d 0.024295 1 2 cbr 210 ------- 6 1.0 2.0 94 94
+ 0.024554 1 2 cbr 210 ------- 6 1.0 2.0 95 95
d 0.024554 1 2 cbr 210 ------- 6 1.0 2.0 95 95
+ 0.024812 1 2 cbr 210 ------- 6 1.0 2.0 96 96
d 0.024812 1 2 cbr 210 ------- 6 1.0 2.0 96 96
r 0.02504 1 2 cbr 210 ------- 6 1.0 2.0 2 2
+ 0.025071 1 2 cbr 210 ------- 6 1.0 2.0 97 97
d 0.025071 1 2 cbr 210 ------- 6 1.0 2.0 97 97
- 0.0252 1 2 cbr 210 ------- 6 1.0 2.0 15 15
+ 0.025329 1 2 cbr 210 ------- 6 1.0 2.0 98 98
+ 0.025588 1 2 cbr 210 ------- 6 1.0 2.0 99 99
d 0.025588 1 2 cbr 210 ------- 6 1.0 2.0 99 99
+ 0.025846 1 2 cbr 210 ------- 6 1.0 2.0 100 100
d 0.025846 1 2 cbr 210 ------- 6 1.0 2.0 100 100
+ 0.026105 1 2 cbr 210 ------- 6 1.0 2.0 101 101
d 0.026105 1 2 cbr 210 ------- 6 1.0 2.0 101 101
+ 0.026363 1 2 cbr 210 ------- 6 1.0 2.0 102 102
d 0.026363 1 2 cbr 210 ------- 6 1.0 2.0 102 102
+ 0.026622 1 2 cbr 210 ------- 6 1.0 2.0 103 103
d 0.026622 1 2 cbr 210 ------- 6 1.0 2.0 103 103
r 0.02672 1 2 cbr 210 ------- 6 1.0 2.0 3 3
+ 0.02688 1 2 cbr 210 ------- 6 1.0 2.0 104 104
d 0.02688 1 2 cbr 210 ------- 6 1.0 2.0 104 104
- 0.02688 1 2 cbr 210 ------- 6 1.0 2.0 16 16
+ 0.027138 1 2 cbr 210 ------- 6 1.0 2.0 105 105
+ 0.027397 1 2 cbr 210 ------- 6 1.0 2.0 106 106
d 0.027397 1 2 cbr 210 ------- 6 1.0 2.0 106 106
+ 0.027655 1 2 cbr 210 ------- 6 1.0 2.0 107 107
d 0.027655 1 2 cbr 210 ------- 6 1.0 2.0 107 107
+ 0.027914 1 2 cbr 210 ------- 6 1.0 2.0 108 108
d 0.027914 1 2 cbr 210 ------- 6 1.0 2.0 108 108
+ 0.028172 1 2 cbr 210 ------- 6 1.0 2.0 109 109
d 0.028172 1 2 cbr 210 ------- 6 1.0 2.0 109 109
r 0.0284 1 2 cbr 210 ------- 6 1.0 2.0 4 4
+ 0.028431 1 2 cbr 210 ------- 6 1.0 2.0 110 110
d 0.028431 1 2 cbr 210 ------- 6 1.0 2.0 110 110
- 0.02856 1 2 cbr 210 ------- 6 1.0 2.0 17 17
+ 0.028689 1 2 cbr 210 ------- 6 1.0 2.0 111 111
+ 0.028948 1 2 cbr 210 ------- 6 1.0 2.0 112 112
d 0.028948 1 2 cbr 210 ------- 6 1.0 2.0 112 112
+ 0.029206 1 2 cbr 210 ------- 6 1.0 2.0 113 113
d 0.029206 1 2 cbr 210 ------- 6 1.0 2.0 113 113
+ 0.029465 1 2 cbr 210 ------- 6 1.0 2.0 114 114
d 0.029465 1 2 cbr 210 ------- 6 1.0 2.0 114 114
+ 0.029723 1 2 cbr 210 ------- 6 1.0 2.0 115 115
d 0.029723 1 2 cbr 210 ------- 6 1.0 2.0 115 115
+ 0.029982 1 2 cbr 210 ------- 6 1.0 2.0 116 116
d 0.029982 1 2 cbr 210 ------- 6 1.0 2.0 116 116
r 0.03008 1 2 cbr 210 ------- 6 1.0 2.0 5 5
+ 0.03024 1 2 cbr 210 ------- 6 1.0 2.0 117 117
d 0.03024 1 2 cbr 210 ------- 6 1.0 2.0 117 117
- 0.03024 1 2 cbr 210 ------- 6 1.0 2.0 18 18
+ 0.030498 1 2 cbr 210 ------- 6 1.0 2.0 118 118
+ 0.030757 1 2 cbr 210 ------- 6 1.0 2.0 119 119
d 0.030757 1 2 cbr 210 ------- 6 1.0 2.0 119 119
+ 0.031015 1 2 cbr 210 ------- 6 1.0 2.0 120 120
d 0.031015 1 2 cbr 210 ------- 6 1.0 2.0 120 120
+ 0.031274 1 2 cbr 210 ------- 6 1.0 2.0 121 121
d 0.031274 1 2 cbr 210 ------- 6 1.0 2.0 121 121
+ 0.031532 1 2 cbr 210 ------- 6 1.0 2.0 122 122
d 0.031532 1 2 cbr 210 ------- 6 1.0 2.0 122 122
r 0.03176 1 2 cbr 210 ------- 6 1.0 2.0 6 6
+ 0.031791 1 2 cbr 210 ------- 6 1.0 2.0 123 123
d 0.031791 1 2 cbr 210 ------- 6 1.0 2.0 123 123
- 0.03192 1 2 cbr 210 ------- 6 1.0 2.0 19 19
+ 0.032049 1 2 cbr 210 ------- 6 1.0 2.0 124 124
+ 0.032308 1 2 cbr 210 ------- 6 1.0 2.0 125 125
d 0.032308 1 2 cbr 210 ------- 6 1.0 2.0 125 125
+ 0.032566 1 2 cbr 210 ------- 6 1.0 2.0 126 126
d 0.032566 1 2 cbr 210 ------- 6 1.0 2.0 126 126
+ 0.032825 1 2 cbr 210 ------- 6 1.0 2.0 127 127
d 0.032825 1 2 cbr 210 ------- 6 1.0 2.0 127 127
+ 0.033083 1 2 cbr 210 ------- 6 1.0 2.0 128 128
d 0.033083 1 2 cbr 210 ------- 6 1.0 2.0 128 128
+ 0.033342 1 2 cbr 210 ------- 6 1.0 2.0 129 129
d 0.033342 1 2 cbr 210 ------- 6 1.0 2.0 129 129
r 0.03344 1 2 cbr 210 ------- 6 1.0 2.0 7 7
+ 0.0336 1 2 cbr 210 ------- 6 1.0 2.0 130 130
d 0.0336 1 2 cbr 210 ------- 6 1.0 2.0 130 130
- 0.0336 1 2 cbr 210 ------- 6 1.0 2.0 20 20
+ 0.033858 1 2 cbr 210 ------- 6 1.0 2.0 131 131
+ 0.034117 1 2 cbr 210 ------- 6 1.0 2.0 132 132
d 0.034117 1 2 cbr 210 ------- 6 1.0 2.0 132 132
+ 0.034375 1 2 cbr 210 ------- 6 1.0 2.0 133 133
d 0.034375 1 2 cbr 210 ------- 6 1.0 2.0 133 133
+ 0.034634 1 2 cbr 210 ------- 6 1.0 2.0 134 134
d 0.034634 1 2 cbr 210 ------- 6 1.0 2.0 134 134
+ 0.034892 1 2 cbr 210 ------- 6 1.0 2.0 135 135
d 0.034892 1 2 cbr 210 ------- 6 1.0 2.0 135 135
r 0.03512 1 2 cbr 210 ------- 6 1.0 2.0 8 8
+ 0.035151 1 2 cbr 210 ------- 6 1.0 2.0 136 136
d 0.035151 1 2 cbr 210 ------- 6 1.0 2.0 136 136
- 0.03528 1 2 cbr 210 ------- 6 1.0 2.0 21 21
+ 0.035409 1 2 cbr 210 ------- 6 1.0 2.0 137 137
+ 0.035668 1 2 cbr 210 ------- 6 1.0 2.0 138 138
d 0.035668 1 2 cbr 210 ------- 6 1.0 2.0 138 138
+ 0.035926 1 2 cbr 210 ------- 6 1.0 2.0 139 139
d 0.035926 1 2 cbr 210 ------- 6 1.0 2.0 139 139
+ 0.036185 1 2 cbr 210 ------- 6 1.0 2.0 140 140
d 0.036185 1 2 cbr 210 ------- 6 1.0 2.0 140 140
+ 0.036443 1 2 cbr 210 ------- 6 1.0 2.0 141 141
d 0.036443 1 2 cbr 210 ------- 6 1.0 2.0 141 141
+ 0.036702 1 2 cbr 210 ------- 6 1.0 2.0 142 142
d 0.036702 1 2 cbr 210 ------- 6 1.0 2.0 142 142
r 0.0368 1 2 cbr 210 ------- 6 1.0 2.0 9 9
+ 0.03696 1 2 cbr 210 ------- 6 1.0 2.0 143 143
d 0.03696 1 2 cbr 210 ------- 6 1.0 2.0 143 143
- 0.03696 1 2 cbr 210 ------- 6 1.0 2.0 22 22
+ 0.037218 1 2 cbr 210 ------- 6 1.0 2.0 144 144
+ 0.037477 1 2 cbr 210 ------- 6 1.0 2.0 145 145
d 0.037477 1 2 cbr 210 ------- 6 1.0 2.0 145 145
+ 0.037735 1 2 cbr 210 ------- 6 1.0 2.0 146 146
d 0.037735 1 2 cbr 210 ------- 6 1.0 2.0 146 146
+ 0.037994 1 2 cbr 210 ------- 6 1.0 2.0 147 147
d 0.037994 1 2 cbr 210 ------- 6 1.0 2.0 147 147
+ 0.038252 1 2 cbr 210 ------- 6 1.0 2.0 148 148
d 0.038252 1 2 cbr 210 ------- 6 1.0 2.0 148 148
r 0.03848 1 2 cbr 210 ------- 6 1.0 2.0 10 10
+ 0.038511 1 2 cbr 210 ------- 6 1.0 2.0 149 149
d 0.038511 1 2 cbr 210 ------- 6 1.0 2.0 149 149
- 0.03864 1 2 cbr 210 ------- 6 1.0 2.0 27 27
+ 0.038769 1 2 cbr 210 ------- 6 1.0 2.0 150 150
+ 0.039028 1 2 cbr 210 ------- 6 1.0 2.0 151 151
d 0.039028 1 2 cbr 210 ------- 6 1.0 2.0 151 151
+ 0.039286 1 2 cbr 210 ------- 6 1.0 2.0 152 152
d 0.039286 1 2 cbr 210 ------- 6 1.0 2.0 152 152
+ 0.039545 1 2 cbr 210 ------- 6 1.0 2.0 153 153
d 0.039545 1 2 cbr 210 ------- 6 1.0 2.0 153 153
+ 0.039803 1 2 cbr 210 ------- 6 1.0 2.0 154 154
d 0.039803 1 2 cbr 210 ------- 6 1.0 2.0 154 154
+ 0.040062 1 2 cbr 210 ------- 6 1.0 2.0 155 155
d 0.040062 1 2 cbr 210 ------- 6 1.0 2.0 155 155
r 0.04016 1 2 cbr 210 ------- 6 1.0 2.0 11 11
- 0.04032 1 2 cbr 210 ------- 6 1.0 2.0 33 33
+ 0.04032 1 2 cbr 210 ------- 6 1.0 2.0 156 156
+ 0.040578 1 2 cbr 210 ------- 6 1.0 2.0 157 157
d 0.040578 1 2 cbr 210 ------- 6 1.0 2.0 157 157
+ 0.040837 1 2 cbr 210 ------- 6 1.0 2.0 158 158
d 0.040837 1 2 cbr 210 ------- 6 1.0 2.0 158 158
+ 0.041095 1 2 cbr 210 ------- 6 1.0 2.0 159 159
d 0.041095 1 2 cbr 210 ------- 6 1.0 2.0 159 159
+ 0.041354 1 2 cbr 210 ------- 6 1.0 2.0 160 160
d 0.041354 1 2 cbr 210 ------- 6 1.0 2.0 160 160
+ 0.041612 1 2 cbr 210 ------- 6 1.0 2.0 161 161
d 0.041612 1 2 cbr 210 ------- 6 1.0 2.0 161 161
r 0.04184 1 2 cbr 210 ------- 6 1.0 2.0 12 12
+ 0.041871 1 2 cbr 210 ------- 6 1.0 2.0 162 162
d 0.041871 1 2 cbr 210 ------- 6 1.0 2.0 162 162
- 0.042 1 2 cbr 210 ------- 6 1.0 2.0 40 40
+ 0.042129 1 2 cbr 210 ------- 6 1.0 2.0 163 163
+ 0.042388 1 2 cbr 210 ------- 6 1.0 2.0 164 164
d 0.042388 1 2 cbr 210 ------- 6 1.0 2.0 164 164
+ 0.042646 1 2 cbr 210 ------- 6 1.0 2.0 165 165
d 0.042646 1 2 cbr 210 ------- 6 1.0 2.0 165 165
+ 0.042905 1 2 cbr 210 ------- 6 1.0 2.0 166 166
d 0.042905 1 2 cbr 210 ------- 6 1.0 2.0 166 166
+ 0.043163 1 2 cbr 210 ------- 6 1.0 2.0 167 167
d 0.043163 1 2 cbr 210 ------- 6 1.0 2.0 167 167
+ 0.043422 1 2 cbr 210 ------- 6 1.0 2.0 168 168
d 0.043422 1 2 cbr 210 ------- 6 1.0 2.0 168 168
r 0.04352 1 2 cbr 210 ------- 6 1.0 2.0 13 13
- 0.04368 1 2 cbr 210 ------- 6 1.0 2.0 46 46
+ 0.04368 1 2 cbr 210 ------- 6 1.0 2.0 169 169
+ 0.043938 1 2 cbr 210 ------- 6 1.0 2.0 170 170
d 0.043938 1 2 cbr 210 ------- 6 1.0 2.0 170 170
+ 0.044197 1 2 cbr 210 ------- 6 1.0 2.0 171 171
d 0.044197 1 2 cbr 210 ------- 6 1.0 2.0 171 171
+ 0.044455 1 2 cbr 210 ------- 6 1.0 2.0 172 172
d 0.044455 1 2 cbr 210 ------- 6 1.0 2.0 172 172
+ 0.044714 1 2 cbr 210 ------- 6 1.0 2.0 173 173
d 0.044714 1 2 cbr 210 ------- 6 1.0 2.0 173 173
+ 0.044972 1 2 cbr 210 ------- 6 1.0 2.0 174 174
d 0.044972 1 2 cbr 210 ------- 6 1.0 2.0 174 174
r 0.0452 1 2 cbr 210 ------- 6 1.0 2.0 14 14
+ 0.045231 1 2 cbr 210 ------- 6 1.0 2.0 175 175
d 0.045231 1 2 cbr 210 ------- 6 1.0 2.0 175 175
- 0.04536 1 2 cbr 210 ------- 6 1.0 2.0 52 52
+ 0.045489 1 2 cbr 210 ------- 6 1.0 2.0 176 176
+ 0.045748 1 2 cbr 210 ------- 6 1.0 2.0 177 177
d 0.045748 1 2 cbr 210 ------- 6 1.0 2.0 177 177
+ 0.046006 1 2 cbr 210 ------- 6 1.0 2.0 178 178
d 0.046006 1 2 cbr 210 ------- 6 1.0 2.0 178 178
+ 0.046265 1 2 cbr 210 ------- 6 1.0 2.0 179 179
d 0.046265 1 2 cbr 210 ------- 6 1.0 2.0 179 179
+ 0.046523 1 2 cbr 210 ------- 6 1.0 2.0 180 180
d 0.046523 1 2 cbr 210 ------- 6 1.0 2.0 180 180
+ 0.046782 1 2 cbr 210 ------- 6 1.0 2.0 181 181
d 0.046782 1 2 cbr 210 ------- 6 1.0 2.0 181 181
r 0.04688 1 2 cbr 210 ------- 6 1.0 2.0 15 15
- 0.04704 1 2 cbr 210 ------- 6 1.0 2.0 59 59
+ 0.04704 1 2 cbr 210 ------- 6 1.0 2.0 182 182
+ 0.047298 1 2 cbr 210 ------- 6 1.0 2.0 183 183
d 0.047298 1 2 cbr 210 ------- 6 1.0 2.0 183 183
+ 0.047557 1 2 cbr 210 ------- 6 1.0 2.0 184 184
d 0.047557 1 2 cbr 210 ------- 6 1.0 2.0 184 184
+ 0.047815 1 2 cbr 210 ------- 6 1.0 2.0 185 185
d 0.047815 1 2 cbr 210 ------- 6 1.0 2.0 185 185
+ 0.048074 1 2 cbr 210 ------- 6 1.0 2.0 186 186
d 0.048074 1 2 cbr 210 ------- 6 1.0 2.0 186 186
+ 0.048332 1 2 cbr 210 ------- 6 1.0 2.0 187 187
d 0.048332 1 2 cbr 210 ------- 6 1.0 2.0 187 187
r 0.04856 1 2 cbr 210 ------- 6 1.0 2.0 16 16
+ 0.048591 1 2 cbr 210 ------- 6 1.0 2.0 188 188
d 0.048591 1 2 cbr 210 ------- 6 1.0 2.0 188 188
- 0.04872 1 2 cbr 210 ------- 6 1.0 2.0 65 65
+ 0.048849 1 2 cbr 210 ------- 6 1.0 2.0 189 189
+ 0.049108 1 2 cbr 210 ------- 6 1.0 2.0 190 190
d 0.049108 1 2 cbr 210 ------- 6 1.0 2.0 190 190
+ 0.049366 1 2 cbr 210 ------- 6 1.0 2.0 191 191
d 0.049366 1 2 cbr 210 ------- 6 1.0 2.0 191 191
+ 0.049625 1 2 cbr 210 ------- 6 1.0 2.0 192 192
d 0.049625 1 2 cbr 210 ------- 6 1.0 2.0 192 192
+ 0.049883 1 2 cbr 210 ------- 6 1.0 2.0 193 193
d 0.049883 1 2 cbr 210 ------- 6 1.0 2.0 193 193
+ 0.050142 1 2 cbr 210 ------- 6 1.0 2.0 194 194
d 0.050142 1 2 cbr 210 ------- 6 1.0 2.0 194 194
r 0.05024 1 2 cbr 210 ------- 6 1.0 2.0 17 17
- 0.0504 1 2 cbr 210 ------- 6 1.0 2.0 72 72
+ 0.0504 1 2 cbr 210 ------- 6 1.0 2.0 195 195
+ 0.050658 1 2 cbr 210 ------- 6 1.0 2.0 196 196
d 0.050658 1 2 cbr 210 ------- 6 1.0 2.0 196 196
+ 0.050917 1 2 cbr 210 ------- 6 1.0 2.0 197 197
d 0.050917 1 2 cbr 210 ------- 6 1.0 2.0 197 197
+ 0.051175 1 2 cbr 210 ------- 6 1.0 2.0 198 198
d 0.051175 1 2 cbr 210 ------- 6 1.0 2.0 198 198
+ 0.051434 1 2 cbr 210 ------- 6 1.0 2.0 199 199
d 0.051434 1 2 cbr 210 ------- 6 1.0 2.0 199 199
+ 0.051692 1 2 cbr 210 ------- 6 1.0 2.0 200 200
d 0.051692 1 2 cbr 210 ------- 6 1.0 2.0 200 200
r 0.05192 1 2 cbr 210 ------- 6 1.0 2.0 18 18
+ 0.051951 1 2 cbr 210 ------- 6 1.0 2.0 201 201
d 0.051951 1 2 cbr 210 ------- 6 1.0 2.0 201 201
- 0.05208 1 2 cbr 210 ------- 6 1.0 2.0 79 79
+ 0.052209 1 2 cbr 210 ------- 6 1.0 2.0 202 202
+ 0.052468 1 2 cbr 210 ------- 6 1.0 2.0 203 203
d 0.052468 1 2 cbr 210 ------- 6 1.0 2.0 203 203
+ 0.052726 1 2 cbr 210 ------- 6 1.0 2.0 204 204
d 0.052726 1 2 cbr 210 ------- 6 1.0 2.0 204 204
+ 0.052985 1 2 cbr 210 ------- 6 1.0 2.0 205 205
d 0.052985 1 2 cbr 210 ------- 6 1.0 2.0 205 205
+ 0.053243 1 2 cbr 210 ------- 6 1.0 2.0 206 206
d 0.053243 1 2 cbr 210 ------- 6 1.0 2.0 206 206
+ 0.053502 1 2 cbr 210 ------- 6 1.0 2.0 207 207
d 0.053502 1 2 cbr 210 ------- 6 1.0 2.0 207 207
r 0.0536 1 2 cbr 210 ------- 6 1.0 2.0 19 19
- 0.05376 1 2 cbr 210 ------- 6 1.0 2.0 85 85
+ 0.05376 1 2 cbr 210 ------- 6 1.0 2.0 208 208
+ 0.054018 1 2 cbr 210 ------- 6 1.0 2.0 209 209
d 0.054018 1 2 cbr 210 ------- 6 1.0 2.0 209 209
+ 0.054277 1 2 cbr 210 ------- 6 1.0 2.0 210 210
d 0.054277 1 2 cbr 210 ------- 6 1.0 2.0 210 210
+ 0.054535 1 2 cbr 210 ------- 6 1.0 2.0 211 211
d 0.054535 1 2 cbr 210 ------- 6 1.0 2.0 211 211
+ 0.054794 1 2 cbr 210 ------- 6 1.0 2.0 212 212
d 0.054794 1 2 cbr 210 ------- 6 1.0 2.0 212 212
+ 0.055052 1 2 cbr 210 ------- 6 1.0 2.0 213 213
d 0.055052 1 2 cbr 210 ------- 6 1.0 2.0 213 213
r 0.05528 1 2 cbr 210 ------- 6 1.0 2.0 20 20
+ 0.055311 1 2 cbr 210 ------- 6 1.0 2.0 214 214
d 0.055311 1 2 cbr 210 ------- 6 1.0 2.0 214 214
- 0.05544 1 2 cbr 210 ------- 6 1.0 2.0 92 92
+ 0.055569 1 2 cbr 210 ------- 6 1.0 2.0 215 215
+ 0.055828 1 2 cbr 210 ------- 6 1.0 2.0 216 216
d 0.055828 1 2 cbr 210 ------- 6 1.0 2.0 216 216
+ 0.056086 1 2 cbr 210 ------- 6 1.0 2.0 217 217
d 0.056086 1 2 cbr 210 ------- 6 1.0 2.0 217 217
+ 0.056345 1 2 cbr 210 ------- 6 1.0 2.0 218 218
d 0.056345 1 2 cbr 210 ------- 6 1.0 2.0 218 218
+ 0.056603 1 2 cbr 210 ------- 6 1.0 2.0 219 219
d 0.056603 1 2 cbr 210 ------- 6 1.0 2.0 219 219
+ 0.056862 1 2 cbr 210 ------- 6 1.0 2.0 220 220
d 0.056862 1 2 cbr 210 ------- 6 1.0 2.0 220 220
r 0.05696 1 2 cbr 210 ------- 6 1.0 2.0 21 21
- 0.05712 1 2 cbr 210 ------- 6 1.0 2.0 98 98
+ 0.05712 1 2 cbr 210 ------- 6 1.0 2.0 221 221
+ 0.057378 1 2 cbr 210 ------- 6 1.0 2.0 222 222
d 0.057378 1 2 cbr 210 ------- 6 1.0 2.0 222 222
+ 0.057637 1 2 cbr 210 ------- 6 1.0 2.0 223 223
d 0.057637 1 2 cbr 210 ------- 6 1.0 2.0 223 223
+ 0.057895 1 2 cbr 210 ------- 6 1.0 2.0 224 224
d 0.057895 1 2 cbr 210 ------- 6 1.0 2.0 224 224
+ 0.058154 1 2 cbr 210 ------- 6 1.0 2.0 225 225
d 0.058154 1 2 cbr 210 ------- 6 1.0 2.0 225 225
+ 0.058412 1 2 cbr 210 ------- 6 1.0 2.0 226 226
d 0.058412 1 2 cbr 210 ------- 6 1.0 2.0 226 226
r 0.05864 1 2 cbr 210 ------- 6 1.0 2.0 22 22
+ 0.058671 1 2 cbr 210 ------- 6 1.0 2.0 227 227
d 0.058671 1 2 cbr 210 ------- 6 1.0 2.0 227 227
- 0.0588 1 2 cbr 210 ------- 6 1.0 2.0 105 105
+ 0.058929 1 2 cbr 210 ------- 6 1.0 2.0 228 228
+ 0.059188 1 2 cbr 210 ------- 6 1.0 2.0 229 229
d 0.059188 1 2 cbr 210 ------- 6 1.0 2.0 229 229
+ 0.059446 1 2 cbr 210 ------- 6 1.0 2.0 230 230
d 0.059446 1 2 cbr 210 ------- 6 1.0 2.0 230 230
+ 0.059705 1 2 cbr 210 ------- 6 1.0 2.0 231 231
d 0.059705 1 2 cbr 210 ------- 6 1.0 2.0 231 231
+ 0.059963 1 2 cbr 210 ------- 6 1.0 2.0 232 232
d 0.059963 1 2 cbr 210 ------- 6 1.0 2.0 232 232
+ 0.060222 1 2 cbr 210 ------- 6 1.0 2.0 233 233
d 0.060222 1 2 cbr 210 ------- 6 1.0 2.0 233 233
r 0.06032 1 2 cbr 210 ------- 6 1.0 2.0 27 27
- 0.06048 1 2 cbr 210 ------- 6 1.0 2.0 111 111
+ 0.06048 1 2 cbr 210 ------- 6 1.0 2.0 234 234
+ 0.060738 1 2 cbr 210 ------- 6 1.0 2.0 235 235
d 0.060738 1 2 cbr 210 ------- 6 1.0 2.0 235 235
+ 0.060997 1 2 cbr 210 ------- 6 1.0 2.0 236 236
d 0.060997 1 2 cbr 210 ------- 6 1.0 2.0 236 236
+ 0.061255 1 2 cbr 210 ------- 6 1.0 2.0 237 237
d 0.061255 1 2 cbr 210 ------- 6 1.0 2.0 237 237
+ 0.061514 1 2 cbr 210 ------- 6 1.0 2.0 238 238
d 0.061514 1 2 cbr 210 ------- 6 1.0 2.0 238 238
+ 0.061772 1 2 cbr 210 ------- 6 1.0 2.0 239 239
d 0.061772 1 2 cbr 210 ------- 6 1.0 2.0 239 239
r 0.062 1 2 cbr 210 ------- 6 1.0 2.0 33 33
+ 0.062031 1 2 cbr 210 ------- 6 1.0 2.0 240 240
d 0.062031 1 2 cbr 210 ------- 6 1.0 2.0 240 240
- 0.06216 1 2 cbr 210 ------- 6 1.0 2.0 118 118
+ 0.062289 1 2 cbr 210 ------- 6 1.0 2.0 241 241
+ 0.062548 1 2 cbr 210 ------- 6 1.0 2.0 242 242
d 0.062548 1 2 cbr 210 ------- 6 1.0 2.0 242 242
+ 0.062806 1 2 cbr 210 ------- 6 1.0 2.0 243 243
d 0.062806 1 2 cbr 210 ------- 6 1.0 2.0 243 243
+ 0.063065 1 2 cbr 210 ------- 6 1.0 2.0 244 244
d 0.063065 1 2 cbr 210 ------- 6 1.0 2.0 244 244
+ 0.063323 1 2 cbr 210 ------- 6 1.0 2.0 245 245
d 0.063323 1 2 cbr 210 ------- 6 1.0 2.0 245 245
+ 0.063582 1 2 cbr 210 ------- 6 1.0 2.0 246 246
d 0.063582 1 2 cbr 210 ------- 6 1.0 2.0 246 246
r 0.06368 1 2 cbr 210 ------- 6 1.0 2.0 40 40
- 0.06384 1 2 cbr 210 ------- 6 1.0 2.0 124 124
+ 0.06384 1 2 cbr 210 ------- 6 1.0 2.0 247 247
+ 0.064098 1 2 cbr 210 ------- 6 1.0 2.0 248 248
d 0.064098 1 2 cbr 210 ------- 6 1.0 2.0 248 248
+ 0.064357 1 2 cbr 210 ------- 6 1.0 2.0 249 249
d 0.064357 1 2 cbr 210 ------- 6 1.0 2.0 249 249
+ 0.064615 1 2 cbr 210 ------- 6 1.0 2.0 250 250
d 0.064615 1 2 cbr 210 ------- 6 1.0 2.0 250 250
+ 0.064874 1 2 cbr 210 ------- 6 1.0 2.0 251 251
d 0.064874 1 2 cbr 210 ------- 6 1.0 2.0 251 251
+ 0.065132 1 2 cbr 210 ------- 6 1.0 2.0 252 252
d 0.065132 1 2 cbr 210 ------- 6 1.0 2.0 252 252
r 0.06536 1 2 cbr 210 ------- 6 1.0 2.0 46 46
+ 0.065391 1 2 cbr 210 ------- 6 1.0 2.0 253 253
d 0.065391 1 2 cbr 210 ------- 6 1.0 2.0 253 253
- 0.06552 1 2 cbr 210 ------- 6 1.0 2.0 131 131
+ 0.065649 1 2 cbr 210 ------- 6 1.0 2.0 254 254
+ 0.065908 1 2 cbr 210 ------- 6 1.0 2.0 255 255
d 0.065908 1 2 cbr 210 ------- 6 1.0 2.0 255 255
+ 0.066166 1 2 cbr 210 ------- 6 1.0 2.0 256 256
d 0.066166 1 2 cbr 210 ------- 6 1.0 2.0 256 256
+ 0.066425 1 2 cbr 210 ------- 6 1.0 2.0 257 257
d 0.066425 1 2 cbr 210 ------- 6 1.0 2.0 257 257
+ 0.066683 1 2 cbr 210 ------- 6 1.0 2.0 258 258
d 0.066683 1 2 cbr 210 ------- 6 1.0 2.0 258 258
+ 0.066942 1 2 cbr 210 ------- 6 1.0 2.0 259 259
d 0.066942 1 2 cbr 210 ------- 6 1.0 2.0 259 259
r 0.06704 1 2 cbr 210 ------- 6 1.0 2.0 52 52
- 0.0672 1 2 cbr 210 ------- 6 1.0 2.0 137 137
+ 0.0672 1 2 cbr 210 ------- 6 1.0 2.0 260 260
+ 0.067458 1 2 cbr 210 ------- 6 1.0 2.0 261 261
d 0.067458 1 2 cbr 210 ------- 6 1.0 2.0 261 261
+ 0.067717 1 2 cbr 210 ------- 6 1.0 2.0 262 262
d 0.067717 1 2 cbr 210 ------- 6 1.0 2.0 262 262
+ 0.067975 1 2 cbr 210 ------- 6 1.0 2.0 263 263
d 0.067975 1 2 cbr 210 ------- 6 1.0 2.0 263 263
+ 0.068234 1 2 cbr 210 ------- 6 1.0 2.0 264 264
d 0.068234 1 2 cbr 210 ------- 6 1.0 2.0 264 264
+ 0.068492 1 2 cbr 210 ------- 6 1.0 2.0 265 265
d 0.068492 1 2 cbr 210 ------- 6 1.0 2.0 265 265
r 0.06872 1 2 cbr 210 ------- 6 1.0 2.0 59 59
+ 0.068751 1 2 cbr 210 ------- 6 1.0 2.0 266 266
d 0.068751 1 2 cbr 210 ------- 6 1.0 2.0 266 266
- 0.06888 1 2 cbr 210 ------- 6 1.0 2.0 144 144
+ 0.069009 1 2 cbr 210 ------- 6 1.0 2.0 267 267
+ 0.069268 1 2 cbr 210 ------- 6 1.0 2.0 268 268
d 0.069268 1 2 cbr 210 ------- 6 1.0 2.0 268 268
+ 0.069526 1 2 cbr 210 ------- 6 1.0 2.0 269 269
d 0.069526 1 2 cbr 210 ------- 6 1.0 2.0 269 269
+ 0.069785 1 2 cbr 210 ------- 6 1.0 2.0 270 270
d 0.069785 1 2 cbr 210 ------- 6 1.0 2.0 270 270
+ 0.070043 1 2 cbr 210 ------- 6 1.0 2.0 271 271
d 0.070043 1 2 cbr 210 ------- 6 1.0 2.0 271 271
+ 0.070302 1 2 cbr 210 ------- 6 1.0 2.0 272 272
d 0.070302 1 2 cbr 210 ------- 6 1.0 2.0 272 272
r 0.0704 1 2 cbr 210 ------- 6 1.0 2.0 65 65
- 0.07056 1 2 cbr 210 ------- 6 1.0 2.0 150 150
+ 0.07056 1 2 cbr 210 ------- 6 1.0 2.0 273 273
+ 0.070818 1 2 cbr 210 ------- 6 1.0 2.0 274 274
d 0.070818 1 2 cbr 210 ------- 6 1.0 2.0 274 274
+ 0.071077 1 2 cbr 210 ------- 6 1.0 2.0 275 275
d 0.071077 1 2 cbr 210 ------- 6 1.0 2.0 275 275
+ 0.071335 1 2 cbr 210 ------- 6 1.0 2.0 276 276
d 0.071335 1 2 cbr 210 ------- 6 1.0 2.0 276 276
+ 0.071594 1 2 cbr 210 ------- 6 1.0 2.0 277 277
d 0.071594 1 2 cbr 210 ------- 6 1.0 2.0 277 277
+ 0.071852 1 2 cbr 210 ------- 6 1.0 2.0 278 278
d 0.071852 1 2 cbr 210 ------- 6 1.0 2.0 278 278
r 0.07208 1 2 cbr 210 ------- 6 1.0 2.0 72 72
+ 0.072111 1 2 cbr 210 ------- 6 1.0 2.0 279 279
d 0.072111 1 2 cbr 210 ------- 6 1.0 2.0 279 279
- 0.07224 1 2 cbr 210 ------- 6 1.0 2.0 156 156
+ 0.072369 1 2 cbr 210 ------- 6 1.0 2.0 280 280
+ 0.072628 1 2 cbr 210 ------- 6 1.0 2.0 281 281
d 0.072628 1 2 cbr 210 ------- 6 1.0 2.0 281 281
+ 0.072886 1 2 cbr 210 ------- 6 1.0 2.0 282 282
d 0.072886 1 2 cbr 210 ------- 6 1.0 2.0 282 282
+ 0.073145 1 2 cbr 210 ------- 6 1.0 2.0 283 283
d 0.073145 1 2 cbr 210 ------- 6 1.0 2.0 283 283
+ 0.073403 1 2 cbr 210 ------- 6 1.0 2.0 284 284
d 0.073403 1 2 cbr 210 ------- 6 1.0 2.0 284 284
+ 0.073662 1 2 cbr 210 ------- 6 1.0 2.0 285 285
d 0.073662 1 2 cbr 210 ------- 6 1.0 2.0 285 285
r 0.07376 1 2 cbr 210 ------- 6 1.0 2.0 79 79
- 0.07392 1 2 cbr 210 ------- 6 1.0 2.0 163 163
+ 0.07392 1 2 cbr 210 ------- 6 1.0 2.0 286 286
+ 0.074178 1 2 cbr 210 ------- 6 1.0 2.0 287 287
d 0.074178 1 2 cbr 210 ------- 6 1.0 2.0 287 287
+ 0.074437 1 2 cbr 210 ------- 6 1.0 2.0 288 288
d 0.074437 1 2 cbr 210 ------- 6 1.0 2.0 288 288
+ 0.074695 1 2 cbr 210 ------- 6 1.0 2.0 289 289
d 0.074695 1 2 cbr 210 ------- 6 1.0 2.0 289 289
+ 0.074954 1 2 cbr 210 ------- 6 1.0 2.0 290 290
d 0.074954 1 2 cbr 210 ------- 6 1.0 2.0 290 290
+ 0.075212 1 2 cbr 210 ------- 6 1.0 2.0 291 291
d 0.075212 1 2 cbr 210 ------- 6 1.0 2.0 291 291
r 0.07544 1 2 cbr 210 ------- 6 1.0 2.0 85 85
+ 0.075471 1 2 cbr 210 ------- 6 1.0 2.0 292 292
d 0.075471 1 2 cbr 210 ------- 6 1.0 2.0 292 292
- 0.0756 1 2 cbr 210 ------- 6 1.0 2.0 169 169
+ 0.075729 1 2 cbr 210 ------- 6 1.0 2.0 293 293
+ 0.075988 1 2 cbr 210 ------- 6 1.0 2.0 294 294
d 0.075988 1 2 cbr 210 ------- 6 1.0 2.0 294 294
+ 0.076246 1 2 cbr 210 ------- 6 1.0 2.0 295 295
d 0.076246 1 2 cbr 210 ------- 6 1.0 2.0 295 295
+ 0.076505 1 2 cbr 210 ------- 6 1.0 2.0 296 296
d 0.076505 1 2 cbr 210 ------- 6 1.0 2.0 296 296
+ 0.076763 1 2 cbr 210 ------- 6 1.0 2.0 297 297
d 0.076763 1 2 cbr 210 ------- 6 1.0 2.0 297 297
+ 0.077022 1 2 cbr 210 ------- 6 1.0 2.0 298 298
d 0.077022 1 2 cbr 210 ------- 6 1.0 2.0 298 298
r 0.07712 1 2 cbr 210 ------- 6 1.0 2.0 92 92
- 0.07728 1 2 cbr 210 ------- 6 1.0 2.0 176 176
+ 0.07728 1 2 cbr 210 ------- 6 1.0 2.0 299 299
+ 0.077538 1 2 cbr 210 ------- 6 1.0 2.0 300 300
d 0.077538 1 2 cbr 210 ------- 6 1.0 2.0 300 300
+ 0.077797 1 2 cbr 210 ------- 6 1.0 2.0 301 301
d 0.077797 1 2 cbr 210 ------- 6 1.0 2.0 301 301
+ 0.078055 1 2 cbr 210 ------- 6 1.0 2.0 302 302
d 0.078055 1 2 cbr 210 ------- 6 1.0 2.0 302 302
+ 0.078314 1 2 cbr 210 ------- 6 1.0 2.0 303 303
d 0.078314 1 2 cbr 210 ------- 6 1.0 2.0 303 303
+ 0.078572 1 2 cbr 210 ------- 6 1.0 2.0 304 304
d 0.078572 1 2 cbr 210 ------- 6 1.0 2.0 304 304
r 0.0788 1 2 cbr 210 ------- 6 1.0 2.0 98 98