+ 0 1 2 cbr 210 ------- 6 1.0 2.0 0 0
- 0 1 2 cbr 210 ------- 6 1.0 2.0 0 0
+ 0.000672 1 2 cbr 210 ------- 6 1.0 2.0 1 1
- 0.000672 1 2 cbr 210 ------- 6 1.0 2.0 1 1
+ 0.001344 1 2 cbr 210 ------- 6 1.0 2.0 2 2
- 0.001344 1 2 cbr 210 ------- 6 1.0 2.0 2 2
+ 0.002016 1 2 cbr 210 ------- 6 1.0 2.0 3 3
- 0.002016 1 2 cbr 210 ------- 6 1.0 2.0 3 3
+ 0.002688 1 2 cbr 210 ------- 6 1.0 2.0 4 4
- 0.002688 1 2 cbr 210 ------- 6 1.0 2.0 4 4
+ 0.00336 1 2 cbr 210 ------- 6 1.0 2.0 5 5
- 0.00336 1 2 cbr 210 ------- 6 1.0 2.0 5 5
+ 0.004032 1 2 cbr 210 ------- 6 1.0 2.0 6 6
- 0.004032 1 2 cbr 210 ------- 6 1.0 2.0 6 6
+ 0.004704 1 2 cbr 210 ------- 6 1.0 2.0 7 7
- 0.004704 1 2 cbr 210 ------- 6 1.0 2.0 7 7
+ 0.005376 1 2 cbr 210 ------- 6 1.0 2.0 8 8
- 0.005376 1 2 cbr 210 ------- 6 1.0 2.0 8 8
+ 0.006048 1 2 cbr 210 ------- 6 1.0 2.0 9 9
- 0.006048 1 2 cbr 210 ------- 6 1.0 2.0 9 9
+ 0.00672 1 2 cbr 210 ------- 6 1.0 2.0 10 10
- 0.00672 1 2 cbr 210 ------- 6 1.0 2.0 10 10
+ 0.007392 1 2 cbr 210 ------- 6 1.0 2.0 11 11
- 0.007392 1 2 cbr 210 ------- 6 1.0 2.0 11 11
+ 0.008064 1 2 cbr 210 ------- 6 1.0 2.0 12 12
- 0.008064 1 2 cbr 210 ------- 6 1.0 2.0 12 12
+ 0.008736 1 2 cbr 210 ------- 6 1.0 2.0 13 13
- 0.008736 1 2 cbr 210 ------- 6 1.0 2.0 13 13
+ 0.009408 1 2 cbr 210 ------- 6 1.0 2.0 14 14
- 0.009408 1 2 cbr 210 ------- 6 1.0 2.0 14 14
+ 0.01008 1 2 cbr 210 ------- 6 1.0 2.0 15 15
- 0.01008 1 2 cbr 210 ------- 6 1.0 2.0 15 15
+ 0.010752 1 2 cbr 210 ------- 6 1.0 2.0 16 16
- 0.010752 1 2 cbr 210 ------- 6 1.0 2.0 16 16
+ 0.011424 1 2 cbr 210 ------- 6 1.0 2.0 17 17
- 0.011424 1 2 cbr 210 ------- 6 1.0 2.0 17 17
+ 0.012096 1 2 cbr 210 ------- 6 1.0 2.0 18 18
- 0.012096 1 2 cbr 210 ------- 6 1.0 2.0 18 18
+ 0.012768 1 2 cbr 210 ------- 6 1.0 2.0 19 19
- 0.012768 1 2 cbr 210 ------- 6 1.0 2.0 19 19
+ 0.01344 1 2 cbr 210 ------- 6 1.0 2.0 20 20
- 0.01344 1 2 cbr 210 ------- 6 1.0 2.0 20 20
+ 0.014112 1 2 cbr 210 ------- 6 1.0 2.0 21 21
- 0.014112 1 2 cbr 210 ------- 6 1.0 2.0 21 21
+ 0.014784 1 2 cbr 210 ------- 6 1.0 2.0 22 22
- 0.014784 1 2 cbr 210 ------- 6 1.0 2.0 22 22
+ 0.015456 1 2 cbr 210 ------- 6 1.0 2.0 23 23
- 0.015456 1 2 cbr 210 ------- 6 1.0 2.0 23 23
+ 0.016128 1 2 cbr 210 ------- 6 1.0 2.0 24 24
- 0.016128 1 2 cbr 210 ------- 6 1.0 2.0 24 24
+ 0.0168 1 2 cbr 210 ------- 6 1.0 2.0 25 25
- 0.0168 1 2 cbr 210 ------- 6 1.0 2.0 25 25
+ 0.017472 1 2 cbr 210 ------- 6 1.0 2.0 26 26
- 0.017472 1 2 cbr 210 ------- 6 1.0 2.0 26 26
+ 0.018144 1 2 cbr 210 ------- 6 1.0 2.0 27 27
- 0.018144 1 2 cbr 210 ------- 6 1.0 2.0 27 27
+ 0.018816 1 2 cbr 210 ------- 6 1.0 2.0 28 28
- 0.018816 1 2 cbr 210 ------- 6 1.0 2.0 28 28
+ 0.019488 1 2 cbr 210 ------- 6 1.0 2.0 29 29
- 0.019488 1 2 cbr 210 ------- 6 1.0 2.0 29 29
+ 0.02016 1 2 cbr 210 ------- 6 1.0 2.0 30 30
- 0.02016 1 2 cbr 210 ------- 6 1.0 2.0 30 30
r 0.020168 1 2 cbr 210 ------- 6 1.0 2.0 0 0
+ 0.020832 1 2 cbr 210 ------- 6 1.0 2.0 31 31
- 0.020832 1 2 cbr 210 ------- 6 1.0 2.0 31 31
r 0.02084 1 2 cbr 210 ------- 6 1.0 2.0 1 1
+ 0.021504 1 2 cbr 210 ------- 6 1.0 2.0 32 32
- 0.021504 1 2 cbr 210 ------- 6 1.0 2.0 32 32
r 0.021512 1 2 cbr 210 ------- 6 1.0 2.0 2 2
+ 0.022176 1 2 cbr 210 ------- 6 1.0 2.0 33 33
- 0.022176 1 2 cbr 210 ------- 6 1.0 2.0 33 33
r 0.022184 1 2 cbr 210 ------- 6 1.0 2.0 3 3
+ 0.022848 1 2 cbr 210 ------- 6 1.0 2.0 34 34
- 0.022848 1 2 cbr 210 ------- 6 1.0 2.0 34 34
r 0.022856 1 2 cbr 210 ------- 6 1.0 2.0 4 4
+ 0.02352 1 2 cbr 210 ------- 6 1.0 2.0 35 35
- 0.02352 1 2 cbr 210 ------- 6 1.0 2.0 35 35
r 0.023528 1 2 cbr 210 ------- 6 1.0 2.0 5 5
+ 0.024192 1 2 cbr 210 ------- 6 1.0 2.0 36 36
- 0.024192 1 2 cbr 210 ------- 6 1.0 2.0 36 36
r 0.0242 1 2 cbr 210 ------- 6 1.0 2.0 6 6
+ 0.024864 1 2 cbr 210 ------- 6 1.0 2.0 37 37
- 0.024864 1 2 cbr 210 ------- 6 1.0 2.0 37 37
r 0.024872 1 2 cbr 210 ------- 6 1.0 2.0 7 7
+ 0.025536 1 2 cbr 210 ------- 6 1.0 2.0 38 38
- 0.025536 1 2 cbr 210 ------- 6 1.0 2.0 38 38
r 0.025544 1 2 cbr 210 ------- 6 1.0 2.0 8 8
+ 0.026208 1 2 cbr 210 ------- 6 1.0 2.0 39 39
- 0.026208 1 2 cbr 210 ------- 6 1.0 2.0 39 39
r 0.026216 1 2 cbr 210 ------- 6 1.0 2.0 9 9
+ 0.02688 1 2 cbr 210 ------- 6 1.0 2.0 40 40
- 0.02688 1 2 cbr 210 ------- 6 1.0 2.0 40 40
r 0.026888 1 2 cbr 210 ------- 6 1.0 2.0 10 10
+ 0.027552 1 2 cbr 210 ------- 6 1.0 2.0 41 41
- 0.027552 1 2 cbr 210 ------- 6 1.0 2.0 41 41
r 0.02756 1 2 cbr 210 ------- 6 1.0 2.0 11 11
+ 0.028224 1 2 cbr 210 ------- 6 1.0 2.0 42 42
- 0.028224 1 2 cbr 210 ------- 6 1.0 2.0 42 42
r 0.028232 1 2 cbr 210 ------- 6 1.0 2.0 12 12
+ 0.028896 1 2 cbr 210 ------- 6 1.0 2.0 43 43
- 0.028896 1 2 cbr 210 ------- 6 1.0 2.0 43 43
r 0.028904 1 2 cbr 210 ------- 6 1.0 2.0 13 13
+ 0.029568 1 2 cbr 210 ------- 6 1.0 2.0 44 44
- 0.029568 1 2 cbr 210 ------- 6 1.0 2.0 44 44
r 0.029576 1 2 cbr 210 ------- 6 1.0 2.0 14 14
+ 0.03024 1 2 cbr 210 ------- 6 1.0 2.0 45 45
- 0.03024 1 2 cbr 210 ------- 6 1.0 2.0 45 45
r 0.030248 1 2 cbr 210 ------- 6 1.0 2.0 15 15
+ 0.030912 1 2 cbr 210 ------- 6 1.0 2.0 46 46
- 0.030912 1 2 cbr 210 ------- 6 1.0 2.0 46 46
r 0.03092 1 2 cbr 210 ------- 6 1.0 2.0 16 16
+ 0.031584 1 2 cbr 210 ------- 6 1.0 2.0 47 47
- 0.031584 1 2 cbr 210 ------- 6 1.0 2.0 47 47
r 0.031592 1 2 cbr 210 ------- 6 1.0 2.0 17 17
+ 0.032256 1 2 cbr 210 ------- 6 1.0 2.0 48 48
- 0.032256 1 2 cbr 210 ------- 6 1.0 2.0 48 48
r 0.032264 1 2 cbr 210 ------- 6 1.0 2.0 18 18
+ 0.032928 1 2 cbr 210 ------- 6 1.0 2.0 49 49
- 0.032928 1 2 cbr 210 ------- 6 1.0 2.0 49 49
r 0.032936 1 2 cbr 210 ------- 6 1.0 2.0 19 19
+ 0.0336 1 2 cbr 210 ------- 6 1.0 2.0 50 50
- 0.0336 1 2 cbr 210 ------- 6 1.0 2.0 50 50
r 0.033608 1 2 cbr 210 ------- 6 1.0 2.0 20 20
+ 0.034272 1 2 cbr 210 ------- 6 1.0 2.0 51 51
- 0.034272 1 2 cbr 210 ------- 6 1.0 2.0 51 51
r 0.03428 1 2 cbr 210 ------- 6 1.0 2.0 21 21
+ 0.034944 1 2 cbr 210 ------- 6 1.0 2.0 52 52
- 0.034944 1 2 cbr 210 ------- 6 1.0 2.0 52 52
r 0.034952 1 2 cbr 210 ------- 6 1.0 2.0 22 22
+ 0.035616 1 2 cbr 210 ------- 6 1.0 2.0 53 53
- 0.035616 1 2 cbr 210 ------- 6 1.0 2.0 53 53
r 0.035624 1 2 cbr 210 ------- 6 1.0 2.0 23 23
+ 0.036288 1 2 cbr 210 ------- 6 1.0 2.0 54 54
- 0.036288 1 2 cbr 210 ------- 6 1.0 2.0 54 54
r 0.036296 1 2 cbr 210 ------- 6 1.0 2.0 24 24
+ 0.03696 1 2 cbr 210 ------- 6 1.0 2.0 55 55
- 0.03696 1 2 cbr 210 ------- 6 1.0 2.0 55 55
r 0.036968 1 2 cbr 210 ------- 6 1.0 2.0 25 25
+ 0.037632 1 2 cbr 210 ------- 6 1.0 2.0 56 56
- 0.037632 1 2 cbr 210 ------- 6 1.0 2.0 56 56
r 0.03764 1 2 cbr 210 ------- 6 1.0 2.0 26 26
+ 0.038304 1 2 cbr 210 ------- 6 1.0 2.0 57 57
- 0.038304 1 2 cbr 210 ------- 6 1.0 2.0 57 57
r 0.038312 1 2 cbr 210 ------- 6 1.0 2.0 27 27
+ 0.038976 1 2 cbr 210 ------- 6 1.0 2.0 58 58
- 0.038976 1 2 cbr 210 ------- 6 1.0 2.0 58 58
r 0.038984 1 2 cbr 210 ------- 6 1.0 2.0 28 28
+ 0.039648 1 2 cbr 210 ------- 6 1.0 2.0 59 59
- 0.039648 1 2 cbr 210 ------- 6 1.0 2.0 59 59
r 0.039656 1 2 cbr 210 ------- 6 1.0 2.0 29 29
+ 0.04032 1 2 cbr 210 ------- 6 1.0 2.0 60 60
- 0.04032 1 2 cbr 210 ------- 6 1.0 2.0 60 60
r 0.040328 1 2 cbr 210 ------- 6 1.0 2.0 30 30
+ 0.040992 1 2 cbr 210 ------- 6 1.0 2.0 61 61
- 0.040992 1 2 cbr 210 ------- 6 1.0 2.0 61 61
r 0.041 1 2 cbr 210 ------- 6 1.0 2.0 31 31
+ 0.041664 1 2 cbr 210 ------- 6 1.0 2.0 62 62
- 0.041664 1 2 cbr 210 ------- 6 1.0 2.0 62 62
r 0.041672 1 2 cbr 210 ------- 6 1.0 2.0 32 32
+ 0.042336 1 2 cbr 210 ------- 6 1.0 2.0 63 63
- 0.042336 1 2 cbr 210 ------- 6 1.0 2.0 63 63
r 0.042344 1 2 cbr 210 ------- 6 1.0 2.0 33 33
+ 0.043008 1 2 cbr 210 ------- 6 1.0 2.0 64 64
- 0.043008 1 2 cbr 210 ------- 6 1.0 2.0 64 64
r 0.043016 1 2 cbr 210 ------- 6 1.0 2.0 34 34
+ 0.04368 1 2 cbr 210 ------- 6 1.0 2.0 65 65
- 0.04368 1 2 cbr 210 ------- 6 1.0 2.0 65 65
r 0.043688 1 2 cbr 210 ------- 6 1.0 2.0 35 35
+ 0.044352 1 2 cbr 210 ------- 6 1.0 2.0 66 66
- 0.044352 1 2 cbr 210 ------- 6 1.0 2.0 66 66
r 0.04436 1 2 cbr 210 ------- 6 1.0 2.0 36 36
+ 0.045024 1 2 cbr 210 ------- 6 1.0 2.0 67 67
- 0.045024 1 2 cbr 210 ------- 6 1.0 2.0 67 67
r 0.045032 1 2 cbr 210 ------- 6 1.0 2.0 37 37
+ 0.045696 1 2 cbr 210 ------- 6 1.0 2.0 68 68
- 0.045696 1 2 cbr 210 ------- 6 1.0 2.0 68 68
r 0.045704 1 2 cbr 210 ------- 6 1.0 2.0 38 38
+ 0.046368 1 2 cbr 210 ------- 6 1.0 2.0 69 69
- 0.046368 1 2 cbr 210 ------- 6 1.0 2.0 69 69
r 0.046376 1 2 cbr 210 ------- 6 1.0 2.0 39 39
+ 0.04704 1 2 cbr 210 ------- 6 1.0 2.0 70 70
- 0.04704 1 2 cbr 210 ------- 6 1.0 2.0 70 70
r 0.047048 1 2 cbr 210 ------- 6 1.0 2.0 40 40
+ 0.047712 1 2 cbr 210 ------- 6 1.0 2.0 71 71
- 0.047712 1 2 cbr 210 ------- 6 1.0 2.0 71 71
r 0.04772 1 2 cbr 210 ------- 6 1.0 2.0 41 41
+ 0.048384 1 2 cbr 210 ------- 6 1.0 2.0 72 72
- 0.048384 1 2 cbr 210 ------- 6 1.0 2.0 72 72
r 0.048392 1 2 cbr 210 ------- 6 1.0 2.0 42 42
+ 0.049056 1 2 cbr 210 ------- 6 1.0 2.0 73 73
- 0.049056 1 2 cbr 210 ------- 6 1.0 2.0 73 73
r 0.049064 1 2 cbr 210 ------- 6 1.0 2.0 43 43
+ 0.049728 1 2 cbr 210 ------- 6 1.0 2.0 74 74
- 0.049728 1 2 cbr 210 ------- 6 1.0 2.0 74 74
r 0.049736 1 2 cbr 210 ------- 6 1.0 2.0 44 44
+ 0.0504 1 2 cbr 210 ------- 6 1.0 2.0 75 75
- 0.0504 1 2 cbr 210 ------- 6 1.0 2.0 75 75
r 0.050408 1 2 cbr 210 ------- 6 1.0 2.0 45 45
+ 0.051072 1 2 cbr 210 ------- 6 1.0 2.0 76 76
- 0.051072 1 2 cbr 210 ------- 6 1.0 2.0 76 76
r 0.05108 1 2 cbr 210 ------- 6 1.0 2.0 46 46
+ 0.051744 1 2 cbr 210 ------- 6 1.0 2.0 77 77
- 0.051744 1 2 cbr 210 ------- 6 1.0 2.0 77 77
r 0.051752 1 2 cbr 210 ------- 6 1.0 2.0 47 47
+ 0.052416 1 2 cbr 210 ------- 6 1.0 2.0 78 78
- 0.052416 1 2 cbr 210 ------- 6 1.0 2.0 78 78
r 0.052424 1 2 cbr 210 ------- 6 1.0 2.0 48 48
+ 0.053088 1 2 cbr 210 ------- 6 1.0 2.0 79 79
- 0.053088 1 2 cbr 210 ------- 6 1.0 2.0 79 79
r 0.053096 1 2 cbr 210 ------- 6 1.0 2.0 49 49
+ 0.05376 1 2 cbr 210 ------- 6 1.0 2.0 80 80
- 0.05376 1 2 cbr 210 ------- 6 1.0 2.0 80 80
r 0.053768 1 2 cbr 210 ------- 6 1.0 2.0 50 50
+ 0.054432 1 2 cbr 210 ------- 6 1.0 2.0 81 81
- 0.054432 1 2 cbr 210 ------- 6 1.0 2.0 81 81
r 0.05444 1 2 cbr 210 ------- 6 1.0 2.0 51 51
+ 0.055104 1 2 cbr 210 ------- 6 1.0 2.0 82 82
- 0.055104 1 2 cbr 210 ------- 6 1.0 2.0 82 82
r 0.055112 1 2 cbr 210 ------- 6 1.0 2.0 52 52
+ 0.055776 1 2 cbr 210 ------- 6 1.0 2.0 83 83
- 0.055776 1 2 cbr 210 ------- 6 1.0 2.0 83 83
r 0.055784 1 2 cbr 210 ------- 6 1.0 2.0 53 53
+ 0.056448 1 2 cbr 210 ------- 6 1.0 2.0 84 84
- 0.056448 1 2 cbr 210 ------- 6 1.0 2.0 84 84
r 0.056456 1 2 cbr 210 ------- 6 1.0 2.0 54 54
+ 0.05712 1 2 cbr 210 ------- 6 1.0 2.0 85 85
- 0.05712 1 2 cbr 210 ------- 6 1.0 2.0 85 85
r 0.057128 1 2 cbr 210 ------- 6 1.0 2.0 55 55
+ 0.057792 1 2 cbr 210 ------- 6 1.0 2.0 86 86
- 0.057792 1 2 cbr 210 ------- 6 1.0 2.0 86 86
r 0.0578 1 2 cbr 210 ------- 6 1.0 2.0 56 56
+ 0.058464 1 2 cbr 210 ------- 6 1.0 2.0 87 87
- 0.058464 1 2 cbr 210 ------- 6 1.0 2.0 87 87
r 0.058472 1 2 cbr 210 ------- 6 1.0 2.0 57 57
+ 0.059136 1 2 cbr 210 ------- 6 1.0 2.0 88 88
- 0.059136 1 2 cbr 210 ------- 6 1.0 2.0 88 88
r 0.059144 1 2 cbr 210 ------- 6 1.0 2.0 58 58
+ 0.059808 1 2 cbr 210 ------- 6 1.0 2.0 89 89
- 0.059808 1 2 cbr 210 ------- 6 1.0 2.0 89 89
r 0.059816 1 2 cbr 210 ------- 6 1.0 2.0 59 59
+ 0.06048 1 2 cbr 210 ------- 6 1.0 2.0 90 90
- 0.06048 1 2 cbr 210 ------- 6 1.0 2.0 90 90
r 0.060488 1 2 cbr 210 ------- 6 1.0 2.0 60 60
+ 0.061152 1 2 cbr 210 ------- 6 1.0 2.0 91 91
- 0.061152 1 2 cbr 210 ------- 6 1.0 2.0 91 91
r 0.06116 1 2 cbr 210 ------- 6 1.0 2.0 61 61
+ 0.061824 1 2 cbr 210 ------- 6 1.0 2.0 92 92
- 0.061824 1 2 cbr 210 ------- 6 1.0 2.0 92 92
r 0.061832 1 2 cbr 210 ------- 6 1.0 2.0 62 62
+ 0.062496 1 2 cbr 210 ------- 6 1.0 2.0 93 93
- 0.062496 1 2 cbr 210 ------- 6 1.0 2.0 93 93
r 0.062504 1 2 cbr 210 ------- 6 1.0 2.0 63 63
+ 0.063168 1 2 cbr 210 ------- 6 1.0 2.0 94 94
- 0.063168 1 2 cbr 210 ------- 6 1.0 2.0 94 94
r 0.063176 1 2 cbr 210 ------- 6 1.0 2.0 64 64
+ 0.06384 1 2 cbr 210 ------- 6 1.0 2.0 95 95
- 0.06384 1 2 cbr 210 ------- 6 1.0 2.0 95 95
r 0.063848 1 2 cbr 210 ------- 6 1.0 2.0 65 65
+ 0.064512 1 2 cbr 210 ------- 6 1.0 2.0 96 96
- 0.064512 1 2 cbr 210 ------- 6 1.0 2.0 96 96
r 0.06452 1 2 cbr 210 ------- 6 1.0 2.0 66 66
+ 0.065184 1 2 cbr 210 ------- 6 1.0 2.0 97 97
- 0.065184 1 2 cbr 210 ------- 6 1.0 2.0 97 97
r 0.065192 1 2 cbr 210 ------- 6 1.0 2.0 67 67
+ 0.065856 1 2 cbr 210 ------- 6 1.0 2.0 98 98
- 0.065856 1 2 cbr 210 ------- 6 1.0 2.0 98 98
r 0.065864 1 2 cbr 210 ------- 6 1.0 2.0 68 68
+ 0.066528 1 2 cbr 210 ------- 6 1.0 2.0 99 99
- 0.066528 1 2 cbr 210 ------- 6 1.0 2.0 99 99
r 0.066536 1 2 cbr 210 ------- 6 1.0 2.0 69 69
+ 0.0672 1 2 cbr 210 ------- 6 1.0 2.0 100 100
- 0.0672 1 2 cbr 210 ------- 6 1.0 2.0 100 100
r 0.067208 1 2 cbr 210 ------- 6 1.0 2.0 70 70
+ 0.067872 1 2 cbr 210 ------- 6 1.0 2.0 101 101
- 0.067872 1 2 cbr 210 ------- 6 1.0 2.0 101 101
r 0.06788 1 2 cbr 210 ------- 6 1.0 2.0 71 71
+ 0.068544 1 2 cbr 210 ------- 6 1.0 2.0 102 102
- 0.068544 1 2 cbr 210 ------- 6 1.0 2.0 102 102
r 0.068552 1 2 cbr 210 ------- 6 1.0 2.0 72 72
+ 0.069216 1 2 cbr 210 ------- 6 1.0 2.0 103 103
- 0.069216 1 2 cbr 210 ------- 6 1.0 2.0 103 103
r 0.069224 1 2 cbr 210 ------- 6 1.0 2.0 73 73
+ 0.069888 1 2 cbr 210 ------- 6 1.0 2.0 104 104
- 0.069888 1 2 cbr 210 ------- 6 1.0 2.0 104 104
r 0.069896 1 2 cbr 210 ------- 6 1.0 2.0 74 74
+ 0.07056 1 2 cbr 210 ------- 6 1.0 2.0 105 105
- 0.07056 1 2 cbr 210 ------- 6 1.0 2.0 105 105
r 0.070568 1 2 cbr 210 ------- 6 1.0 2.0 75 75
+ 0.071232 1 2 cbr 210 ------- 6 1.0 2.0 106 106
- 0.071232 1 2 cbr 210 ------- 6 1.0 2.0 106 106
r 0.07124 1 2 cbr 210 ------- 6 1.0 2.0 76 76
+ 0.071904 1 2 cbr 210 ------- 6 1.0 2.0 107 107
- 0.071904 1 2 cbr 210 ------- 6 1.0 2.0 107 107
r 0.071912 1 2 cbr 210 ------- 6 1.0 2.0 77 77
+ 0.072576 1 2 cbr 210 ------- 6 1.0 2.0 108 108
- 0.072576 1 2 cbr 210 ------- 6 1.0 2.0 108 108
r 0.072584 1 2 cbr 210 ------- 6 1.0 2.0 78 78
+ 0.073248 1 2 cbr 210 ------- 6 1.0 2.0 109 109
- 0.073248 1 2 cbr 210 ------- 6 1.0 2.0 109 109
r 0.073256 1 2 cbr 210 ------- 6 1.0 2.0 79 79
+ 0.07392 1 2 cbr 210 ------- 6 1.0 2.0 110 110
- 0.07392 1 2 cbr 210 ------- 6 1.0 2.0 110 110
r 0.073928 1 2 cbr 210 ------- 6 1.0 2.0 80 80
+ 0.074592 1 2 cbr 210 ------- 6 1.0 2.0 111 111
- 0.074592 1 2 cbr 210 ------- 6 1.0 2.0 111 111
r 0.0746 1 2 cbr 210 ------- 6 1.0 2.0 81 81
+ 0.075264 1 2 cbr 210 ------- 6 1.0 2.0 112 112
- 0.075264 1 2 cbr 210 ------- 6 1.0 2.0 112 112
r 0.075272 1 2 cbr 210 ------- 6 1.0 2.0 82 82
+ 0.075936 1 2 cbr 210 ------- 6 1.0 2.0 113 113
- 0.075936 1 2 cbr 210 ------- 6 1.0 2.0 113 113
r 0.075944 1 2 cbr 210 ------- 6 1.0 2.0 83 83
+ 0.076608 1 2 cbr 210 ------- 6 1.0 2.0 114 114
- 0.076608 1 2 cbr 210 ------- 6 1.0 2.0 114 114
r 0.076616 1 2 cbr 210 ------- 6 1.0 2.0 84 84
+ 0.07728 1 2 cbr 210 ------- 6 1.0 2.0 115 115
- 0.07728 1 2 cbr 210 ------- 6 1.0 2.0 115 115
r 0.077288 1 2 cbr 210 ------- 6 1.0 2.0 85 85
+ 0.077952 1 2 cbr 210 ------- 6 1.0 2.0 116 116
- 0.077952 1 2 cbr 210 ------- 6 1.0 2.0 116 116
r 0.07796 1 2 cbr 210 ------- 6 1.0 2.0 86 86
+ 0.078624 1 2 cbr 210 ------- 6 1.0 2.0 117 117
- 0.078624 1 2 cbr 210 ------- 6 1.0 2.0 117 117
r 0.078632 1 2 cbr 210 ------- 6 1.0 2.0 87 87
+ 0.079296 1 2 cbr 210 ------- 6 1.0 2.0 118 118
- 0.079296 1 2 cbr 210 ------- 6 1.0 2.0 118 118
r 0.079304 1 2 cbr 210 ------- 6 1.0 2.0 88 88
+ 0.079968 1 2 cbr 210 ------- 6 1.0 2.0 119 119
- 0.079968 1 2 cbr 210 ------- 6 1.0 2.0 119 119
r 0.079976 1 2 cbr 210 ------- 6 1.0 2.0 89 89
+ 0.08064 1 2 cbr 210 ------- 6 1.0 2.0 120 120
- 0.08064 1 2 cbr 210 ------- 6 1.0 2.0 120 120
r 0.080648 1 2 cbr 210 ------- 6 1.0 2.0 90 90
+ 0.081312 1 2 cbr 210 ------- 6 1.0 2.0 121 121
- 0.081312 1 2 cbr 210 ------- 6 1.0 2.0 121 121
r 0.08132 1 2 cbr 210 ------- 6 1.0 2.0 91 91
+ 0.081984 1 2 cbr 210 ------- 6 1.0 2.0 122 122
- 0.081984 1 2 cbr 210 ------- 6 1.0 2.0 122 122
r 0.081992 1 2 cbr 210 ------- 6 1.0 2.0 92 92
+ 0.082656 1 2 cbr 210 ------- 6 1.0 2.0 123 123
- 0.082656 1 2 cbr 210 ------- 6 1.0 2.0 123 123
r 0.082664 1 2 cbr 210 ------- 6 1.0 2.0 93 93
+ 0.083328 1 2 cbr 210 ------- 6 1.0 2.0 124 124
- 0.083328 1 2 cbr 210 ------- 6 1.0 2.0 124 124
r 0.083336 1 2 cbr 210 ------- 6 1.0 2.0 94 94
+ 0.084 1 2 cbr 210 ------- 6 1.0 2.0 125 125
- 0.084 1 2 cbr 210 ------- 6 1.0 2.0 125 125
r 0.084008 1 2 cbr 210 ------- 6 1.0 2.0 95 95
+ 0.084672 1 2 cbr 210 ------- 6 1.0 2.0 126 126
- 0.084672 1 2 cbr 210 ------- 6 1.0 2.0 126 126
r 0.08468 1 2 cbr 210 ------- 6 1.0 2.0 96 96
+ 0.085344 1 2 cbr 210 ------- 6 1.0 2.0 127 127
- 0.085344 1 2 cbr 210 ------- 6 1.0 2.0 127 127
r 0.085352 1 2 cbr 210 ------- 6 1.0 2.0 97 97
+ 0.086016 1 2 cbr 210 ------- 6 1.0 2.0 128 128
- 0.086016 1 2 cbr 210 ------- 6 1.0 2.0 128 128
r 0.086024 1 2 cbr 210 ------- 6 1.0 2.0 98 98
+ 0.086688 1 2 cbr 210 ------- 6 1.0 2.0 129 129
- 0.086688 1 2 cbr 210 ------- 6 1.0 2.0 129 129
r 0.086696 1 2 cbr 210 ------- 6 1.0 2.0 99 99
+ 0.08736 1 2 cbr 210 ------- 6 1.0 2.0 130 130
- 0.08736 1 2 cbr 210 ------- 6 1.0 2.0 130 130
r 0.087368 1 2 cbr 210 ------- 6 1.0 2.0 100 100
+ 0.088032 1 2 cbr 210 ------- 6 1.0 2.0 131 131
- 0.088032 1 2 cbr 210 ------- 6 1.0 2.0 131 131
r 0.08804 1 2 cbr 210 ------- 6 1.0 2.0 101 101
+ 0.088704 1 2 cbr 210 ------- 6 1.0 2.0 132 132
- 0.088704 1 2 cbr 210 ------- 6 1.0 2.0 132 132
r 0.088712 1 2 cbr 210 ------- 6 1.0 2.0 102 102
+ 0.089376 1 2 cbr 210 ------- 6 1.0 2.0 133 133
- 0.089376 1 2 cbr 210 ------- 6 1.0 2.0 133 133
r 0.089384 1 2 cbr 210 ------- 6 1.0 2.0 103 103
+ 0.090048 1 2 cbr 210 ------- 6 1.0 2.0 134 134
- 0.090048 1 2 cbr 210 ------- 6 1.0 2.0 134 134
r 0.090056 1 2 cbr 210 ------- 6 1.0 2.0 104 104
+ 0.09072 1 2 cbr 210 ------- 6 1.0 2.0 135 135
- 0.09072 1 2 cbr 210 ------- 6 1.0 2.0 135 135
r 0.090728 1 2 cbr 210 ------- 6 1.0 2.0 105 105
+ 0.091392 1 2 cbr 210 ------- 6 1.0 2.0 136 136
- 0.091392 1 2 cbr 210 ------- 6 1.0 2.0 136 136
r 0.0914 1 2 cbr 210 ------- 6 1.0 2.0 106 106
+ 0.092064 1 2 cbr 210 ------- 6 1.0 2.0 137 137
- 0.092064 1 2 cbr 210 ------- 6 1.0 2.0 137 137
r 0.092072 1 2 cbr 210 ------- 6 1.0 2.0 107 107
+ 0.092736 1 2 cbr 210 ------- 6 1.0 2.0 138 138
- 0.092736 1 2 cbr 210 ------- 6 1.0 2.0 138 138
r 0.092744 1 2 cbr 210 ------- 6 1.0 2.0 108 108
+ 0.093408 1 2 cbr 210 ------- 6 1.0 2.0 139 139
- 0.093408 1 2 cbr 210 ------- 6 1.0 2.0 139 139
r 0.093416 1 2 cbr 210 ------- 6 1.0 2.0 109 109
+ 0.09408 1 2 cbr 210 ------- 6 1.0 2.0 140 140
- 0.09408 1 2 cbr 210 ------- 6 1.0 2.0 140 140
r 0.094088 1 2 cbr 210 ------- 6 1.0 2.0 110 110
+ 0.094752 1 2 cbr 210 ------- 6 1.0 2.0 141 141
- 0.094752 1 2 cbr 210 ------- 6 1.0 2.0 141 141
r 0.09476 1 2 cbr 210 ------- 6 1.0 2.0 111 111
+ 0.095424 1 2 cbr 210 ------- 6 1.0 2.0 142 142
- 0.095424 1 2 cbr 210 ------- 6 1.0 2.0 142 142
r 0.095432 1 2 cbr 210 ------- 6 1.0 2.0 112 112
+ 0.096096 1 2 cbr 210 ------- 6 1.0 2.0 143 143
- 0.096096 1 2 cbr 210 ------- 6 1.0 2.0 143 143
r 0.096104 1 2 cbr 210 ------- 6 1.0 2.0 113 113
+ 0.096768 1 2 cbr 210 ------- 6 1.0 2.0 144 144
- 0.096768 1 2 cbr 210 ------- 6 1.0 2.0 144 144
r 0.096776 1 2 cbr 210 ------- 6 1.0 2.0 114 114
+ 0.09744 1 2 cbr 210 ------- 6 1.0 2.0 145 145
- 0.09744 1 2 cbr 210 ------- 6 1.0 2.0 145 145
r 0.097448 1 2 cbr 210 ------- 6 1.0 2.0 115 115
+ 0.098112 1 2 cbr 210 ------- 6 1.0 2.0 146 146
- 0.098112 1 2 cbr 210 ------- 6 1.0 2.0 146 146
r 0.09812 1 2 cbr 210 ------- 6 1.0 2.0 116 116
+ 0.098784 1 2 cbr 210 ------- 6 1.0 2.0 147 147
- 0.098784 1 2 cbr 210 ------- 6 1.0 2.0 147 147
r 0.098792 1 2 cbr 210 ------- 6 1.0 2.0 117 117
+ 0.099456 1 2 cbr 210 ------- 6 1.0 2.0 148 148
- 0.099456 1 2 cbr 210 ------- 6 1.0 2.0 148 148
r 0.099464 1 2 cbr 210 ------- 6 1.0 2.0 118 118
+ 0.100128 1 2 cbr 210 ------- 6 1.0 2.0 149 149
- 0.100128 1 2 cbr 210 ------- 6 1.0 2.0 149 149
r 0.100136 1 2 cbr 210 ------- 6 1.0 2.0 119 119
+ 0.1008 1 2 cbr 210 ------- 6 1.0 2.0 150 150
- 0.1008 1 2 cbr 210 ------- 6 1.0 2.0 150 150
r 0.100808 1 2 cbr 210 ------- 6 1.0 2.0 120 120
+ 0.101472 1 2 cbr 210 ------- 6 1.0 2.0 151 151
- 0.101472 1 2 cbr 210 ------- 6 1.0 2.0 151 151
r 0.10148 1 2 cbr 210 ------- 6 1.0 2.0 121 121
+ 0.102144 1 2 cbr 210 ------- 6 1.0 2.0 152 152
- 0.102144 1 2 cbr 210 ------- 6 1.0 2.0 152 152
r 0.102152 1 2 cbr 210 ------- 6 1.0 2.0 122 122
+ 0.102816 1 2 cbr 210 ------- 6 1.0 2.0 153 153
- 0.102816 1 2 cbr 210 ------- 6 1.0 2.0 153 153
r 0.102824 1 2 cbr 210 ------- 6 1.0 2.0 123 123
+ 0.103488 1 2 cbr 210 ------- 6 1.0 2.0 154 154
- 0.103488 1 2 cbr 210 ------- 6 1.0 2.0 154 154
r 0.103496 1 2 cbr 210 ------- 6 1.0 2.0 124 124
+ 0.10416 1 2 cbr 210 ------- 6 1.0 2.0 155 155
- 0.10416 1 2 cbr 210 ------- 6 1.0 2.0 155 155
r 0.104168 1 2 cbr 210 ------- 6 1.0 2.0 125 125
+ 0.104832 1 2 cbr 210 ------- 6 1.0 2.0 156 156
- 0.104832 1 2 cbr 210 ------- 6 1.0 2.0 156 156
r 0.10484 1 2 cbr 210 ------- 6 1.0 2.0 126 126
+ 0.105504 1 2 cbr 210 ------- 6 1.0 2.0 157 157
- 0.105504 1 2 cbr 210 ------- 6 1.0 2.0 157 157
r 0.105512 1 2 cbr 210 ------- 6 1.0 2.0 127 127
+ 0.106176 1 2 cbr 210 ------- 6 1.0 2.0 158 158
- 0.106176 1 2 cbr 210 ------- 6 1.0 2.0 158 158
r 0.106184 1 2 cbr 210 ------- 6 1.0 2.0 128 128
+ 0.106848 1 2 cbr 210 ------- 6 1.0 2.0 159 159
- 0.106848 1 2 cbr 210 ------- 6 1.0 2.0 159 159
r 0.106856 1 2 cbr 210 ------- 6 1.0 2.0 129 129
+ 0.10752 1 2 cbr 210 ------- 6 1.0 2.0 160 160
- 0.10752 1 2 cbr 210 ------- 6 1.0 2.0 160 160
r 0.107528 1 2 cbr 210 ------- 6 1.0 2.0 130 130
+ 0.108192 1 2 cbr 210 ------- 6 1.0 2.0 161 161
- 0.108192 1 2 cbr 210 ------- 6 1.0 2.0 161 161
r 0.1082 1 2 cbr 210 ------- 6 1.0 2.0 131 131
+ 0.108864 1 2 cbr 210 ------- 6 1.0 2.0 162 162
- 0.108864 1 2 cbr 210 ------- 6 1.0 2.0 162 162
r 0.108872 1 2 cbr 210 ------- 6 1.0 2.0 132 132
+ 0.109536 1 2 cbr 210 ------- 6 1.0 2.0 163 163
- 0.109536 1 2 cbr 210 ------- 6 1.0 2.0 163 163
r 0.109544 1 2 cbr 210 ------- 6 1.0 2.0 133 133
+ 0.110208 1 2 cbr 210 ------- 6 1.0 2.0 164 164
- 0.110208 1 2 cbr 210 ------- 6 1.0 2.0 164 164
r 0.110216 1 2 cbr 210 ------- 6 1.0 2.0 134 134
+ 0.11088 1 2 cbr 210 ------- 6 1.0 2.0 165 165
- 0.11088 1 2 cbr 210 ------- 6 1.0 2.0 165 165
r 0.110888 1 2 cbr 210 ------- 6 1.0 2.0 135 135
+ 0.111552 1 2 cbr 210 ------- 6 1.0 2.0 166 166
- 0.111552 1 2 cbr 210 ------- 6 1.0 2.0 166 166
r 0.11156 1 2 cbr 210 ------- 6 1.0 2.0 136 136
+ 0.112224 1 2 cbr 210 ------- 6 1.0 2.0 167 167
- 0.112224 1 2 cbr 210 ------- 6 1.0 2.0 167 167
r 0.112232 1 2 cbr 210 ------- 6 1.0 2.0 137 137
+ 0.112896 1 2 cbr 210 ------- 6 1.0 2.0 168 168
- 0.112896 1 2 cbr 210 ------- 6 1.0 2.0 168 168
r 0.112904 1 2 cbr 210 ------- 6 1.0 2.0 138 138
+ 0.113568 1 2 cbr 210 ------- 6 1.0 2.0 169 169
- 0.113568 1 2 cbr 210 ------- 6 1.0 2.0 169 169
r 0.113576 1 2 cbr 210 ------- 6 1.0 2.0 139 139
+ 0.11424 1 2 cbr 210 ------- 6 1.0 2.0 170 170
- 0.11424 1 2 cbr 210 ------- 6 1.0 2.0 170 170
r 0.114248 1 2 cbr 210 ------- 6 1.0 2.0 140 140
+ 0.114912 1 2 cbr 210 ------- 6 1.0 2.0 171 171
- 0.114912 1 2 cbr 210 ------- 6 1.0 2.0 171 171
r 0.11492 1 2 cbr 210 ------- 6 1.0 2.0 141 141
+ 0.115584 1 2 cbr 210 ------- 6 1.0 2.0 172 172
- 0.115584 1 2 cbr 210 ------- 6 1.0 2.0 172 172
r 0.115592 1 2 cbr 210 ------- 6 1.0 2.0 142 142
+ 0.116256 1 2 cbr 210 ------- 6 1.0 2.0 173 173
- 0.116256 1 2 cbr 210 ------- 6 1.0 2.0 173 173
r 0.116264 1 2 cbr 210 ------- 6 1.0 2.0 143 143
+ 0.116928 1 2 cbr 210 ------- 6 1.0 2.0 174 174
- 0.116928 1 2 cbr 210 ------- 6 1.0 2.0 174 174
r 0.116936 1 2 cbr 210 ------- 6 1.0 2.0 144 144
+ 0.1176 1 2 cbr 210 ------- 6 1.0 2.0 175 175
- 0.1176 1 2 cbr 210 ------- 6 1.0 2.0 175 175
r 0.117608 1 2 cbr 210 ------- 6 1.0 2.0 145 145
+ 0.118272 1 2 cbr 210 ------- 6 1.0 2.0 176 176
- 0.118272 1 2 cbr 210 ------- 6 1.0 2.0 176 176
r 0.11828 1 2 cbr 210 ------- 6 1.0 2.0 146 146
+ 0.118944 1 2 cbr 210 ------- 6 1.0 2.0 177 177
- 0.118944 1 2 cbr 210 ------- 6 1.0 2.0 177 177
r 0.118952 1 2 cbr 210 ------- 6 1.0 2.0 147 147
+ 0.119616 1 2 cbr 210 ------- 6 1.0 2.0 178 178
- 0.119616 1 2 cbr 210 ------- 6 1.0 2.0 178 178
r 0.119624 1 2 cbr 210 ------- 6 1.0 2.0 148 148
+ 0.120288 1 2 cbr 210 ------- 6 1.0 2.0 179 179
- 0.120288 1 2 cbr 210 ------- 6 1.0 2.0 179 179
r 0.120296 1 2 cbr 210 ------- 6 1.0 2.0 149 149
+ 0.12096 1 2 cbr 210 ------- 6 1.0 2.0 180 180
- 0.12096 1 2 cbr 210 ------- 6 1.0 2.0 180 180
r 0.120968 1 2 cbr 210 ------- 6 1.0 2.0 150 150
+ 0.121632 1 2 cbr 210 ------- 6 1.0 2.0 181 181
- 0.121632 1 2 cbr 210 ------- 6 1.0 2.0 181 181
r 0.12164 1 2 cbr 210 ------- 6 1.0 2.0 151 151
+ 0.122304 1 2 cbr 210 ------- 6 1.0 2.0 182 182
- 0.122304 1 2 cbr 210 ------- 6 1.0 2.0 182 182
r 0.122312 1 2 cbr 210 ------- 6 1.0 2.0 152 152
+ 0.122976 1 2 cbr 210 ------- 6 1.0 2.0 183 183
- 0.122976 1 2 cbr 210 ------- 6 1.0 2.0 183 183
r 0.122984 1 2 cbr 210 ------- 6 1.0 2.0 153 153
+ 0.123648 1 2 cbr 210 ------- 6 1.0 2.0 184 184
- 0.123648 1 2 cbr 210 ------- 6 1.0 2.0 184 184
r 0.123656 1 2 cbr 210 ------- 6 1.0 2.0 154 154
+ 0.12432 1 2 cbr 210 ------- 6 1.0 2.0 185 185
- 0.12432 1 2 cbr 210 ------- 6 1.0 2.0 185 185
r 0.124328 1 2 cbr 210 ------- 6 1.0 2.0 155 155
+ 0.124992 1 2 cbr 210 ------- 6 1.0 2.0 186 186
- 0.124992 1 2 cbr 210 ------- 6 1.0 2.0 186 186
r 0.125 1 2 cbr 210 ------- 6 1.0 2.0 156 156
+ 0.125664 1 2 cbr 210 ------- 6 1.0 2.0 187 187
- 0.125664 1 2 cbr 210 ------- 6 1.0 2.0 187 187
r 0.125672 1 2 cbr 210 ------- 6 1.0 2.0 157 157
+ 0.126336 1 2 cbr 210 ------- 6 1.0 2.0 188 188
- 0.126336 1 2 cbr 210 ------- 6 1.0 2.0 188 188
r 0.126344 1 2 cbr 210 ------- 6 1.0 2.0 158 158
+ 0.127008 1 2 cbr 210 ------- 6 1.0 2.0 189 189
- 0.127008 1 2 cbr 210 ------- 6 1.0 2.0 189 189
r 0.127016 1 2 cbr 210 ------- 6 1.0 2.0 159 159
+ 0.12768 1 2 cbr 210 ------- 6 1.0 2.0 190 190
- 0.12768 1 2 cbr 210 ------- 6 1.0 2.0 190 190
r 0.127688 1 2 cbr 210 ------- 6 1.0 2.0 160 160
+ 0.128352 1 2 cbr 210 ------- 6 1.0 2.0 191 191
- 0.128352 1 2 cbr 210 ------- 6 1.0 2.0 191 191
r 0.12836 1 2 cbr 210 ------- 6 1.0 2.0 161 161
+ 0.129024 1 2 cbr 210 ------- 6 1.0 2.0 192 192
- 0.129024 1 2 cbr 210 ------- 6 1.0 2.0 192 192
r 0.129032 1 2 cbr 210 ------- 6 1.0 2.0 162 162
+ 0.129696 1 2 cbr 210 ------- 6 1.0 2.0 193 193
- 0.129696 1 2 cbr 210 ------- 6 1.0 2.0 193 193
r 0.129704 1 2 cbr 210 ------- 6 1.0 2.0 163 163
+ 0.130368 1 2 cbr 210 ------- 6 1.0 2.0 194 194
- 0.130368 1 2 cbr 210 ------- 6 1.0 2.0 194 194
r 0.130376 1 2 cbr 210 ------- 6 1.0 2.0 164 164
+ 0.13104 1 2 cbr 210 ------- 6 1.0 2.0 195 195
- 0.13104 1 2 cbr 210 ------- 6 1.0 2.0 195 195
r 0.131048 1 2 cbr 210 ------- 6 1.0 2.0 165 165
+ 0.131712 1 2 cbr 210 ------- 6 1.0 2.0 196 196
- 0.131712 1 2 cbr 210 ------- 6 1.0 2.0 196 196
r 0.13172 1 2 cbr 210 ------- 6 1.0 2.0 166 166
+ 0.132384 1 2 cbr 210 ------- 6 1.0 2.0 197 197
- 0.132384 1 2 cbr 210 ------- 6 1.0 2.0 197 197
r 0.132392 1 2 cbr 210 ------- 6 1.0 2.0 167 167
+ 0.133056 1 2 cbr 210 ------- 6 1.0 2.0 198 198
- 0.133056 1 2 cbr 210 ------- 6 1.0 2.0 198 198
r 0.133064 1 2 cbr 210 ------- 6 1.0 2.0 168 168
+ 0.133728 1 2 cbr 210 ------- 6 1.0 2.0 199 199
- 0.133728 1 2 cbr 210 ------- 6 1.0 2.0 199 199
r 0.133736 1 2 cbr 210 ------- 6 1.0 2.0 169 169
+ 0.1344 1 2 cbr 210 ------- 6 1.0 2.0 200 200
- 0.1344 1 2 cbr 210 ------- 6 1.0 2.0 200 200
r 0.134408 1 2 cbr 210 ------- 6 1.0 2.0 170 170
+ 0.135072 1 2 cbr 210 ------- 6 1.0 2.0 201 201
- 0.135072 1 2 cbr 210 ------- 6 1.0 2.0 201 201
r 0.13508 1 2 cbr 210 ------- 6 1.0 2.0 171 171
+ 0.135744 1 2 cbr 210 ------- 6 1.0 2.0 202 202
- 0.135744 1 2 cbr 210 ------- 6 1.0 2.0 202 202
r 0.135752 1 2 cbr 210 ------- 6 1.0 2.0 172 172
+ 0.136416 1 2 cbr 210 ------- 6 1.0 2.0 203 203
- 0.136416 1 2 cbr 210 ------- 6 1.0 2.0 203 203
r 0.136424 1 2 cbr 210 ------- 6 1.0 2.0 173 173
+ 0.137088 1 2 cbr 210 ------- 6 1.0 2.0 204 204
- 0.137088 1 2 cbr 210 ------- 6 1.0 2.0 204 204
r 0.137096 1 2 cbr 210 ------- 6 1.0 2.0 174 174
+ 0.13776 1 2 cbr 210 ------- 6 1.0 2.0 205 205
- 0.13776 1 2 cbr 210 ------- 6 1.0 2.0 205 205
r 0.137768 1 2 cbr 210 ------- 6 1.0 2.0 175 175
+ 0.138432 1 2 cbr 210 ------- 6 1.0 2.0 206 206
- 0.138432 1 2 cbr 210 ------- 6 1.0 2.0 206 206
r 0.13844 1 2 cbr 210 ------- 6 1.0 2.0 176 176
+ 0.139104 1 2 cbr 210 ------- 6 1.0 2.0 207 207
- 0.139104 1 2 cbr 210 ------- 6 1.0 2.0 207 207
r 0.139112 1 2 cbr 210 ------- 6 1.0 2.0 177 177
+ 0.139776 1 2 cbr 210 ------- 6 1.0 2.0 208 208
- 0.139776 1 2 cbr 210 ------- 6 1.0 2.0 208 208
r 0.139784 1 2 cbr 210 ------- 6 1.0 2.0 178 178
+ 0.140448 1 2 cbr 210 ------- 6 1.0 2.0 209 209
- 0.140448 1 2 cbr 210 ------- 6 1.0 2.0 209 209
r 0.140456 1 2 cbr 210 ------- 6 1.0 2.0 179 179
+ 0.14112 1 2 cbr 210 ------- 6 1.0 2.0 210 210
- 0.14112 1 2 cbr 210 ------- 6 1.0 2.0 210 210
r 0.141128 1 2 cbr 210 ------- 6 1.0 2.0 180 180
+ 0.141792 1 2 cbr 210 ------- 6 1.0 2.0 211 211
- 0.141792 1 2 cbr 210 ------- 6 1.0 2.0 211 211
r 0.1418 1 2 cbr 210 ------- 6 1.0 2.0 181 181
+ 0.142464 1 2 cbr 210 ------- 6 1.0 2.0 212 212
- 0.142464 1 2 cbr 210 ------- 6 1.0 2.0 212 212
r 0.142472 1 2 cbr 210 ------- 6 1.0 2.0 182 182
+ 0.143136 1 2 cbr 210 ------- 6 1.0 2.0 213 213
- 0.143136 1 2 cbr 210 ------- 6 1.0 2.0 213 213
r 0.143144 1 2 cbr 210 ------- 6 1.0 2.0 183 183
+ 0.143808 1 2 cbr 210 ------- 6 1.0 2.0 214 214
- 0.143808 1 2 cbr 210 ------- 6 1.0 2.0 214 214
r 0.143816 1 2 cbr 210 ------- 6 1.0 2.0 184 184
+ 0.14448 1 2 cbr 210 ------- 6 1.0 2.0 215 215
- 0.14448 1 2 cbr 210 ------- 6 1.0 2.0 215 215
r 0.144488 1 2 cbr 210 ------- 6 1.0 2.0 185 185
+ 0.145152 1 2 cbr 210 ------- 6 1.0 2.0 216 216
- 0.145152 1 2 cbr 210 ------- 6 1.0 2.0 216 216
r 0.14516 1 2 cbr 210 ------- 6 1.0 2.0 186 186
+ 0.145824 1 2 cbr 210 ------- 6 1.0 2.0 217 217
- 0.145824 1 2 cbr 210 ------- 6 1.0 2.0 217 217
r 0.145832 1 2 cbr 210 ------- 6 1.0 2.0 187 187
+ 0.146496 1 2 cbr 210 ------- 6 1.0 2.0 218 218
- 0.146496 1 2 cbr 210 ------- 6 1.0 2.0 218 218
r 0.146504 1 2 cbr 210 ------- 6 1.0 2.0 188 188
+ 0.147168 1 2 cbr 210 ------- 6 1.0 2.0 219 219
- 0.147168 1 2 cbr 210 ------- 6 1.0 2.0 219 219