+ 0 1 2 cbr 210 ------- 6 1.0 2.0 0 0
- 0 1 2 cbr 210 ------- 6 1.0 2.0 0 0
+ 0.00112 1 2 cbr 210 ------- 6 1.0 2.0 1 1
- 0.00112 1 2 cbr 210 ------- 6 1.0 2.0 1 1
+ 0.00224 1 2 cbr 210 ------- 6 1.0 2.0 2 2
- 0.00224 1 2 cbr 210 ------- 6 1.0 2.0 2 2
+ 0.00336 1 2 cbr 210 ------- 6 1.0 2.0 3 3
- 0.00336 1 2 cbr 210 ------- 6 1.0 2.0 3 3
+ 0.00448 1 2 cbr 210 ------- 6 1.0 2.0 4 4
- 0.00448 1 2 cbr 210 ------- 6 1.0 2.0 4 4
+ 0.0056 1 2 cbr 210 ------- 6 1.0 2.0 5 5
- 0.0056 1 2 cbr 210 ------- 6 1.0 2.0 5 5
+ 0.00672 1 2 cbr 210 ------- 6 1.0 2.0 6 6
- 0.00672 1 2 cbr 210 ------- 6 1.0 2.0 6 6
+ 0.00784 1 2 cbr 210 ------- 6 1.0 2.0 7 7
- 0.00784 1 2 cbr 210 ------- 6 1.0 2.0 7 7
+ 0.00896 1 2 cbr 210 ------- 6 1.0 2.0 8 8
- 0.00896 1 2 cbr 210 ------- 6 1.0 2.0 8 8
+ 0.01008 1 2 cbr 210 ------- 6 1.0 2.0 9 9
- 0.01008 1 2 cbr 210 ------- 6 1.0 2.0 9 9
+ 0.0112 1 2 cbr 210 ------- 6 1.0 2.0 10 10
- 0.0112 1 2 cbr 210 ------- 6 1.0 2.0 10 10
+ 0.01232 1 2 cbr 210 ------- 6 1.0 2.0 11 11
- 0.01232 1 2 cbr 210 ------- 6 1.0 2.0 11 11
+ 0.01344 1 2 cbr 210 ------- 6 1.0 2.0 12 12
- 0.01344 1 2 cbr 210 ------- 6 1.0 2.0 12 12
+ 0.01456 1 2 cbr 210 ------- 6 1.0 2.0 13 13
- 0.01456 1 2 cbr 210 ------- 6 1.0 2.0 13 13
+ 0.01568 1 2 cbr 210 ------- 6 1.0 2.0 14 14
- 0.01568 1 2 cbr 210 ------- 6 1.0 2.0 14 14
+ 0.0168 1 2 cbr 210 ------- 6 1.0 2.0 15 15
- 0.0168 1 2 cbr 210 ------- 6 1.0 2.0 15 15
+ 0.01792 1 2 cbr 210 ------- 6 1.0 2.0 16 16
- 0.01792 1 2 cbr 210 ------- 6 1.0 2.0 16 16
+ 0.01904 1 2 cbr 210 ------- 6 1.0 2.0 17 17
- 0.01904 1 2 cbr 210 ------- 6 1.0 2.0 17 17
+ 0.02016 1 2 cbr 210 ------- 6 1.0 2.0 18 18
- 0.02016 1 2 cbr 210 ------- 6 1.0 2.0 18 18
r 0.020168 1 2 cbr 210 ------- 6 1.0 2.0 0 0
+ 0.02128 1 2 cbr 210 ------- 6 1.0 2.0 19 19
- 0.02128 1 2 cbr 210 ------- 6 1.0 2.0 19 19
r 0.021288 1 2 cbr 210 ------- 6 1.0 2.0 1 1
+ 0.0224 1 2 cbr 210 ------- 6 1.0 2.0 20 20
- 0.0224 1 2 cbr 210 ------- 6 1.0 2.0 20 20
r 0.022408 1 2 cbr 210 ------- 6 1.0 2.0 2 2
+ 0.02352 1 2 cbr 210 ------- 6 1.0 2.0 21 21
- 0.02352 1 2 cbr 210 ------- 6 1.0 2.0 21 21
r 0.023528 1 2 cbr 210 ------- 6 1.0 2.0 3 3
+ 0.02464 1 2 cbr 210 ------- 6 1.0 2.0 22 22
- 0.02464 1 2 cbr 210 ------- 6 1.0 2.0 22 22
r 0.024648 1 2 cbr 210 ------- 6 1.0 2.0 4 4
+ 0.02576 1 2 cbr 210 ------- 6 1.0 2.0 23 23
- 0.02576 1 2 cbr 210 ------- 6 1.0 2.0 23 23
r 0.025768 1 2 cbr 210 ------- 6 1.0 2.0 5 5
+ 0.02688 1 2 cbr 210 ------- 6 1.0 2.0 24 24
- 0.02688 1 2 cbr 210 ------- 6 1.0 2.0 24 24
r 0.026888 1 2 cbr 210 ------- 6 1.0 2.0 6 6
+ 0.028 1 2 cbr 210 ------- 6 1.0 2.0 25 25
- 0.028 1 2 cbr 210 ------- 6 1.0 2.0 25 25
r 0.028008 1 2 cbr 210 ------- 6 1.0 2.0 7 7
+ 0.02912 1 2 cbr 210 ------- 6 1.0 2.0 26 26
- 0.02912 1 2 cbr 210 ------- 6 1.0 2.0 26 26
r 0.029128 1 2 cbr 210 ------- 6 1.0 2.0 8 8
+ 0.03024 1 2 cbr 210 ------- 6 1.0 2.0 27 27
- 0.03024 1 2 cbr 210 ------- 6 1.0 2.0 27 27
r 0.030248 1 2 cbr 210 ------- 6 1.0 2.0 9 9
+ 0.03136 1 2 cbr 210 ------- 6 1.0 2.0 28 28
- 0.03136 1 2 cbr 210 ------- 6 1.0 2.0 28 28
r 0.031368 1 2 cbr 210 ------- 6 1.0 2.0 10 10
+ 0.03248 1 2 cbr 210 ------- 6 1.0 2.0 29 29
- 0.03248 1 2 cbr 210 ------- 6 1.0 2.0 29 29
r 0.032488 1 2 cbr 210 ------- 6 1.0 2.0 11 11
+ 0.0336 1 2 cbr 210 ------- 6 1.0 2.0 30 30
- 0.0336 1 2 cbr 210 ------- 6 1.0 2.0 30 30
r 0.033608 1 2 cbr 210 ------- 6 1.0 2.0 12 12
+ 0.03472 1 2 cbr 210 ------- 6 1.0 2.0 31 31
- 0.03472 1 2 cbr 210 ------- 6 1.0 2.0 31 31
r 0.034728 1 2 cbr 210 ------- 6 1.0 2.0 13 13
+ 0.03584 1 2 cbr 210 ------- 6 1.0 2.0 32 32
- 0.03584 1 2 cbr 210 ------- 6 1.0 2.0 32 32
r 0.035848 1 2 cbr 210 ------- 6 1.0 2.0 14 14
+ 0.03696 1 2 cbr 210 ------- 6 1.0 2.0 33 33
- 0.03696 1 2 cbr 210 ------- 6 1.0 2.0 33 33
r 0.036968 1 2 cbr 210 ------- 6 1.0 2.0 15 15
+ 0.03808 1 2 cbr 210 ------- 6 1.0 2.0 34 34
- 0.03808 1 2 cbr 210 ------- 6 1.0 2.0 34 34
r 0.038088 1 2 cbr 210 ------- 6 1.0 2.0 16 16
+ 0.0392 1 2 cbr 210 ------- 6 1.0 2.0 35 35
- 0.0392 1 2 cbr 210 ------- 6 1.0 2.0 35 35
r 0.039208 1 2 cbr 210 ------- 6 1.0 2.0 17 17
+ 0.04032 1 2 cbr 210 ------- 6 1.0 2.0 36 36
- 0.04032 1 2 cbr 210 ------- 6 1.0 2.0 36 36
r 0.040328 1 2 cbr 210 ------- 6 1.0 2.0 18 18
+ 0.04144 1 2 cbr 210 ------- 6 1.0 2.0 37 37
- 0.04144 1 2 cbr 210 ------- 6 1.0 2.0 37 37
r 0.041448 1 2 cbr 210 ------- 6 1.0 2.0 19 19
+ 0.04256 1 2 cbr 210 ------- 6 1.0 2.0 38 38
- 0.04256 1 2 cbr 210 ------- 6 1.0 2.0 38 38
r 0.042568 1 2 cbr 210 ------- 6 1.0 2.0 20 20
+ 0.04368 1 2 cbr 210 ------- 6 1.0 2.0 39 39
- 0.04368 1 2 cbr 210 ------- 6 1.0 2.0 39 39
r 0.043688 1 2 cbr 210 ------- 6 1.0 2.0 21 21
+ 0.0448 1 2 cbr 210 ------- 6 1.0 2.0 40 40
- 0.0448 1 2 cbr 210 ------- 6 1.0 2.0 40 40
r 0.044808 1 2 cbr 210 ------- 6 1.0 2.0 22 22
+ 0.04592 1 2 cbr 210 ------- 6 1.0 2.0 41 41
- 0.04592 1 2 cbr 210 ------- 6 1.0 2.0 41 41
r 0.045928 1 2 cbr 210 ------- 6 1.0 2.0 23 23
+ 0.04704 1 2 cbr 210 ------- 6 1.0 2.0 42 42
- 0.04704 1 2 cbr 210 ------- 6 1.0 2.0 42 42
r 0.047048 1 2 cbr 210 ------- 6 1.0 2.0 24 24
+ 0.04816 1 2 cbr 210 ------- 6 1.0 2.0 43 43
- 0.04816 1 2 cbr 210 ------- 6 1.0 2.0 43 43
r 0.048168 1 2 cbr 210 ------- 6 1.0 2.0 25 25
+ 0.04928 1 2 cbr 210 ------- 6 1.0 2.0 44 44
- 0.04928 1 2 cbr 210 ------- 6 1.0 2.0 44 44
r 0.049288 1 2 cbr 210 ------- 6 1.0 2.0 26 26
+ 0.0504 1 2 cbr 210 ------- 6 1.0 2.0 45 45
- 0.0504 1 2 cbr 210 ------- 6 1.0 2.0 45 45
r 0.050408 1 2 cbr 210 ------- 6 1.0 2.0 27 27
+ 0.05152 1 2 cbr 210 ------- 6 1.0 2.0 46 46
- 0.05152 1 2 cbr 210 ------- 6 1.0 2.0 46 46
r 0.051528 1 2 cbr 210 ------- 6 1.0 2.0 28 28
+ 0.05264 1 2 cbr 210 ------- 6 1.0 2.0 47 47
- 0.05264 1 2 cbr 210 ------- 6 1.0 2.0 47 47
r 0.052648 1 2 cbr 210 ------- 6 1.0 2.0 29 29
+ 0.05376 1 2 cbr 210 ------- 6 1.0 2.0 48 48
- 0.05376 1 2 cbr 210 ------- 6 1.0 2.0 48 48
r 0.053768 1 2 cbr 210 ------- 6 1.0 2.0 30 30
+ 0.05488 1 2 cbr 210 ------- 6 1.0 2.0 49 49
- 0.05488 1 2 cbr 210 ------- 6 1.0 2.0 49 49
r 0.054888 1 2 cbr 210 ------- 6 1.0 2.0 31 31
+ 0.056 1 2 cbr 210 ------- 6 1.0 2.0 50 50
- 0.056 1 2 cbr 210 ------- 6 1.0 2.0 50 50
r 0.056008 1 2 cbr 210 ------- 6 1.0 2.0 32 32
+ 0.05712 1 2 cbr 210 ------- 6 1.0 2.0 51 51
- 0.05712 1 2 cbr 210 ------- 6 1.0 2.0 51 51
r 0.057128 1 2 cbr 210 ------- 6 1.0 2.0 33 33
+ 0.05824 1 2 cbr 210 ------- 6 1.0 2.0 52 52
- 0.05824 1 2 cbr 210 ------- 6 1.0 2.0 52 52
r 0.058248 1 2 cbr 210 ------- 6 1.0 2.0 34 34
+ 0.05936 1 2 cbr 210 ------- 6 1.0 2.0 53 53
- 0.05936 1 2 cbr 210 ------- 6 1.0 2.0 53 53
r 0.059368 1 2 cbr 210 ------- 6 1.0 2.0 35 35
+ 0.06048 1 2 cbr 210 ------- 6 1.0 2.0 54 54
- 0.06048 1 2 cbr 210 ------- 6 1.0 2.0 54 54
r 0.060488 1 2 cbr 210 ------- 6 1.0 2.0 36 36
+ 0.0616 1 2 cbr 210 ------- 6 1.0 2.0 55 55
- 0.0616 1 2 cbr 210 ------- 6 1.0 2.0 55 55
r 0.061608 1 2 cbr 210 ------- 6 1.0 2.0 37 37
+ 0.06272 1 2 cbr 210 ------- 6 1.0 2.0 56 56
- 0.06272 1 2 cbr 210 ------- 6 1.0 2.0 56 56
r 0.062728 1 2 cbr 210 ------- 6 1.0 2.0 38 38
+ 0.06384 1 2 cbr 210 ------- 6 1.0 2.0 57 57
- 0.06384 1 2 cbr 210 ------- 6 1.0 2.0 57 57
r 0.063848 1 2 cbr 210 ------- 6 1.0 2.0 39 39
+ 0.06496 1 2 cbr 210 ------- 6 1.0 2.0 58 58
- 0.06496 1 2 cbr 210 ------- 6 1.0 2.0 58 58
r 0.064968 1 2 cbr 210 ------- 6 1.0 2.0 40 40
+ 0.06608 1 2 cbr 210 ------- 6 1.0 2.0 59 59
- 0.06608 1 2 cbr 210 ------- 6 1.0 2.0 59 59
r 0.066088 1 2 cbr 210 ------- 6 1.0 2.0 41 41
+ 0.0672 1 2 cbr 210 ------- 6 1.0 2.0 60 60
- 0.0672 1 2 cbr 210 ------- 6 1.0 2.0 60 60
r 0.067208 1 2 cbr 210 ------- 6 1.0 2.0 42 42
+ 0.06832 1 2 cbr 210 ------- 6 1.0 2.0 61 61
- 0.06832 1 2 cbr 210 ------- 6 1.0 2.0 61 61
r 0.068328 1 2 cbr 210 ------- 6 1.0 2.0 43 43
+ 0.06944 1 2 cbr 210 ------- 6 1.0 2.0 62 62
- 0.06944 1 2 cbr 210 ------- 6 1.0 2.0 62 62
r 0.069448 1 2 cbr 210 ------- 6 1.0 2.0 44 44
+ 0.07056 1 2 cbr 210 ------- 6 1.0 2.0 63 63
- 0.07056 1 2 cbr 210 ------- 6 1.0 2.0 63 63
r 0.070568 1 2 cbr 210 ------- 6 1.0 2.0 45 45
+ 0.07168 1 2 cbr 210 ------- 6 1.0 2.0 64 64
- 0.07168 1 2 cbr 210 ------- 6 1.0 2.0 64 64
r 0.071688 1 2 cbr 210 ------- 6 1.0 2.0 46 46
+ 0.0728 1 2 cbr 210 ------- 6 1.0 2.0 65 65
- 0.0728 1 2 cbr 210 ------- 6 1.0 2.0 65 65
r 0.072808 1 2 cbr 210 ------- 6 1.0 2.0 47 47
+ 0.07392 1 2 cbr 210 ------- 6 1.0 2.0 66 66
- 0.07392 1 2 cbr 210 ------- 6 1.0 2.0 66 66
r 0.073928 1 2 cbr 210 ------- 6 1.0 2.0 48 48
+ 0.07504 1 2 cbr 210 ------- 6 1.0 2.0 67 67
- 0.07504 1 2 cbr 210 ------- 6 1.0 2.0 67 67
r 0.075048 1 2 cbr 210 ------- 6 1.0 2.0 49 49
+ 0.07616 1 2 cbr 210 ------- 6 1.0 2.0 68 68
- 0.07616 1 2 cbr 210 ------- 6 1.0 2.0 68 68
r 0.076168 1 2 cbr 210 ------- 6 1.0 2.0 50 50
+ 0.07728 1 2 cbr 210 ------- 6 1.0 2.0 69 69
- 0.07728 1 2 cbr 210 ------- 6 1.0 2.0 69 69
r 0.077288 1 2 cbr 210 ------- 6 1.0 2.0 51 51
+ 0.0784 1 2 cbr 210 ------- 6 1.0 2.0 70 70
- 0.0784 1 2 cbr 210 ------- 6 1.0 2.0 70 70
r 0.078408 1 2 cbr 210 ------- 6 1.0 2.0 52 52
+ 0.07952 1 2 cbr 210 ------- 6 1.0 2.0 71 71
- 0.07952 1 2 cbr 210 ------- 6 1.0 2.0 71 71
r 0.079528 1 2 cbr 210 ------- 6 1.0 2.0 53 53
+ 0.08064 1 2 cbr 210 ------- 6 1.0 2.0 72 72
- 0.08064 1 2 cbr 210 ------- 6 1.0 2.0 72 72
r 0.080648 1 2 cbr 210 ------- 6 1.0 2.0 54 54
+ 0.08176 1 2 cbr 210 ------- 6 1.0 2.0 73 73
- 0.08176 1 2 cbr 210 ------- 6 1.0 2.0 73 73
r 0.081768 1 2 cbr 210 ------- 6 1.0 2.0 55 55
+ 0.08288 1 2 cbr 210 ------- 6 1.0 2.0 74 74
- 0.08288 1 2 cbr 210 ------- 6 1.0 2.0 74 74
r 0.082888 1 2 cbr 210 ------- 6 1.0 2.0 56 56
+ 0.084 1 2 cbr 210 ------- 6 1.0 2.0 75 75
- 0.084 1 2 cbr 210 ------- 6 1.0 2.0 75 75
r 0.084008 1 2 cbr 210 ------- 6 1.0 2.0 57 57
+ 0.08512 1 2 cbr 210 ------- 6 1.0 2.0 76 76
- 0.08512 1 2 cbr 210 ------- 6 1.0 2.0 76 76
r 0.085128 1 2 cbr 210 ------- 6 1.0 2.0 58 58
+ 0.08624 1 2 cbr 210 ------- 6 1.0 2.0 77 77
- 0.08624 1 2 cbr 210 ------- 6 1.0 2.0 77 77
r 0.086248 1 2 cbr 210 ------- 6 1.0 2.0 59 59
+ 0.08736 1 2 cbr 210 ------- 6 1.0 2.0 78 78
- 0.08736 1 2 cbr 210 ------- 6 1.0 2.0 78 78
r 0.087368 1 2 cbr 210 ------- 6 1.0 2.0 60 60
+ 0.08848 1 2 cbr 210 ------- 6 1.0 2.0 79 79
- 0.08848 1 2 cbr 210 ------- 6 1.0 2.0 79 79
r 0.088488 1 2 cbr 210 ------- 6 1.0 2.0 61 61
+ 0.0896 1 2 cbr 210 ------- 6 1.0 2.0 80 80
- 0.0896 1 2 cbr 210 ------- 6 1.0 2.0 80 80
r 0.089608 1 2 cbr 210 ------- 6 1.0 2.0 62 62
+ 0.09072 1 2 cbr 210 ------- 6 1.0 2.0 81 81
- 0.09072 1 2 cbr 210 ------- 6 1.0 2.0 81 81
r 0.090728 1 2 cbr 210 ------- 6 1.0 2.0 63 63
+ 0.09184 1 2 cbr 210 ------- 6 1.0 2.0 82 82
- 0.09184 1 2 cbr 210 ------- 6 1.0 2.0 82 82
r 0.091848 1 2 cbr 210 ------- 6 1.0 2.0 64 64
+ 0.09296 1 2 cbr 210 ------- 6 1.0 2.0 83 83
- 0.09296 1 2 cbr 210 ------- 6 1.0 2.0 83 83
r 0.092968 1 2 cbr 210 ------- 6 1.0 2.0 65 65
+ 0.09408 1 2 cbr 210 ------- 6 1.0 2.0 84 84
- 0.09408 1 2 cbr 210 ------- 6 1.0 2.0 84 84
r 0.094088 1 2 cbr 210 ------- 6 1.0 2.0 66 66
+ 0.0952 1 2 cbr 210 ------- 6 1.0 2.0 85 85
- 0.0952 1 2 cbr 210 ------- 6 1.0 2.0 85 85
r 0.095208 1 2 cbr 210 ------- 6 1.0 2.0 67 67
+ 0.09632 1 2 cbr 210 ------- 6 1.0 2.0 86 86
- 0.09632 1 2 cbr 210 ------- 6 1.0 2.0 86 86
r 0.096328 1 2 cbr 210 ------- 6 1.0 2.0 68 68
+ 0.09744 1 2 cbr 210 ------- 6 1.0 2.0 87 87
- 0.09744 1 2 cbr 210 ------- 6 1.0 2.0 87 87
r 0.097448 1 2 cbr 210 ------- 6 1.0 2.0 69 69
+ 0.09856 1 2 cbr 210 ------- 6 1.0 2.0 88 88
- 0.09856 1 2 cbr 210 ------- 6 1.0 2.0 88 88
r 0.098568 1 2 cbr 210 ------- 6 1.0 2.0 70 70
+ 0.09968 1 2 cbr 210 ------- 6 1.0 2.0 89 89
- 0.09968 1 2 cbr 210 ------- 6 1.0 2.0 89 89
r 0.099688 1 2 cbr 210 ------- 6 1.0 2.0 71 71
+ 0.1008 1 2 cbr 210 ------- 6 1.0 2.0 90 90
- 0.1008 1 2 cbr 210 ------- 6 1.0 2.0 90 90
r 0.100808 1 2 cbr 210 ------- 6 1.0 2.0 72 72
+ 0.10192 1 2 cbr 210 ------- 6 1.0 2.0 91 91
- 0.10192 1 2 cbr 210 ------- 6 1.0 2.0 91 91
r 0.101928 1 2 cbr 210 ------- 6 1.0 2.0 73 73
+ 0.10304 1 2 cbr 210 ------- 6 1.0 2.0 92 92
- 0.10304 1 2 cbr 210 ------- 6 1.0 2.0 92 92
r 0.103048 1 2 cbr 210 ------- 6 1.0 2.0 74 74
+ 0.10416 1 2 cbr 210 ------- 6 1.0 2.0 93 93
- 0.10416 1 2 cbr 210 ------- 6 1.0 2.0 93 93
r 0.104168 1 2 cbr 210 ------- 6 1.0 2.0 75 75
+ 0.10528 1 2 cbr 210 ------- 6 1.0 2.0 94 94
- 0.10528 1 2 cbr 210 ------- 6 1.0 2.0 94 94
r 0.105288 1 2 cbr 210 ------- 6 1.0 2.0 76 76
+ 0.1064 1 2 cbr 210 ------- 6 1.0 2.0 95 95
- 0.1064 1 2 cbr 210 ------- 6 1.0 2.0 95 95
r 0.106408 1 2 cbr 210 ------- 6 1.0 2.0 77 77
+ 0.10752 1 2 cbr 210 ------- 6 1.0 2.0 96 96
- 0.10752 1 2 cbr 210 ------- 6 1.0 2.0 96 96
r 0.107528 1 2 cbr 210 ------- 6 1.0 2.0 78 78
+ 0.10864 1 2 cbr 210 ------- 6 1.0 2.0 97 97
- 0.10864 1 2 cbr 210 ------- 6 1.0 2.0 97 97
r 0.108648 1 2 cbr 210 ------- 6 1.0 2.0 79 79
+ 0.10976 1 2 cbr 210 ------- 6 1.0 2.0 98 98
- 0.10976 1 2 cbr 210 ------- 6 1.0 2.0 98 98
r 0.109768 1 2 cbr 210 ------- 6 1.0 2.0 80 80
+ 0.11088 1 2 cbr 210 ------- 6 1.0 2.0 99 99
- 0.11088 1 2 cbr 210 ------- 6 1.0 2.0 99 99
r 0.110888 1 2 cbr 210 ------- 6 1.0 2.0 81 81
+ 0.112 1 2 cbr 210 ------- 6 1.0 2.0 100 100
- 0.112 1 2 cbr 210 ------- 6 1.0 2.0 100 100
r 0.112008 1 2 cbr 210 ------- 6 1.0 2.0 82 82
+ 0.11312 1 2 cbr 210 ------- 6 1.0 2.0 101 101
- 0.11312 1 2 cbr 210 ------- 6 1.0 2.0 101 101
r 0.113128 1 2 cbr 210 ------- 6 1.0 2.0 83 83
+ 0.11424 1 2 cbr 210 ------- 6 1.0 2.0 102 102
- 0.11424 1 2 cbr 210 ------- 6 1.0 2.0 102 102
r 0.114248 1 2 cbr 210 ------- 6 1.0 2.0 84 84
+ 0.11536 1 2 cbr 210 ------- 6 1.0 2.0 103 103
- 0.11536 1 2 cbr 210 ------- 6 1.0 2.0 103 103
r 0.115368 1 2 cbr 210 ------- 6 1.0 2.0 85 85
+ 0.11648 1 2 cbr 210 ------- 6 1.0 2.0 104 104
- 0.11648 1 2 cbr 210 ------- 6 1.0 2.0 104 104
r 0.116488 1 2 cbr 210 ------- 6 1.0 2.0 86 86
+ 0.1176 1 2 cbr 210 ------- 6 1.0 2.0 105 105
- 0.1176 1 2 cbr 210 ------- 6 1.0 2.0 105 105
r 0.117608 1 2 cbr 210 ------- 6 1.0 2.0 87 87
+ 0.11872 1 2 cbr 210 ------- 6 1.0 2.0 106 106
- 0.11872 1 2 cbr 210 ------- 6 1.0 2.0 106 106
r 0.118728 1 2 cbr 210 ------- 6 1.0 2.0 88 88
+ 0.11984 1 2 cbr 210 ------- 6 1.0 2.0 107 107
- 0.11984 1 2 cbr 210 ------- 6 1.0 2.0 107 107
r 0.119848 1 2 cbr 210 ------- 6 1.0 2.0 89 89
+ 0.12096 1 2 cbr 210 ------- 6 1.0 2.0 108 108
- 0.12096 1 2 cbr 210 ------- 6 1.0 2.0 108 108
r 0.120968 1 2 cbr 210 ------- 6 1.0 2.0 90 90
+ 0.12208 1 2 cbr 210 ------- 6 1.0 2.0 109 109
- 0.12208 1 2 cbr 210 ------- 6 1.0 2.0 109 109
r 0.122088 1 2 cbr 210 ------- 6 1.0 2.0 91 91
+ 0.1232 1 2 cbr 210 ------- 6 1.0 2.0 110 110
- 0.1232 1 2 cbr 210 ------- 6 1.0 2.0 110 110
r 0.123208 1 2 cbr 210 ------- 6 1.0 2.0 92 92
+ 0.12432 1 2 cbr 210 ------- 6 1.0 2.0 111 111
- 0.12432 1 2 cbr 210 ------- 6 1.0 2.0 111 111
r 0.124328 1 2 cbr 210 ------- 6 1.0 2.0 93 93
+ 0.12544 1 2 cbr 210 ------- 6 1.0 2.0 112 112
- 0.12544 1 2 cbr 210 ------- 6 1.0 2.0 112 112
r 0.125448 1 2 cbr 210 ------- 6 1.0 2.0 94 94
+ 0.12656 1 2 cbr 210 ------- 6 1.0 2.0 113 113
- 0.12656 1 2 cbr 210 ------- 6 1.0 2.0 113 113
r 0.126568 1 2 cbr 210 ------- 6 1.0 2.0 95 95
+ 0.12768 1 2 cbr 210 ------- 6 1.0 2.0 114 114
- 0.12768 1 2 cbr 210 ------- 6 1.0 2.0 114 114
r 0.127688 1 2 cbr 210 ------- 6 1.0 2.0 96 96
+ 0.1288 1 2 cbr 210 ------- 6 1.0 2.0 115 115
- 0.1288 1 2 cbr 210 ------- 6 1.0 2.0 115 115
r 0.128808 1 2 cbr 210 ------- 6 1.0 2.0 97 97
+ 0.12992 1 2 cbr 210 ------- 6 1.0 2.0 116 116
- 0.12992 1 2 cbr 210 ------- 6 1.0 2.0 116 116
r 0.129928 1 2 cbr 210 ------- 6 1.0 2.0 98 98
+ 0.13104 1 2 cbr 210 ------- 6 1.0 2.0 117 117
- 0.13104 1 2 cbr 210 ------- 6 1.0 2.0 117 117
r 0.131048 1 2 cbr 210 ------- 6 1.0 2.0 99 99
+ 0.13216 1 2 cbr 210 ------- 6 1.0 2.0 118 118
- 0.13216 1 2 cbr 210 ------- 6 1.0 2.0 118 118
r 0.132168 1 2 cbr 210 ------- 6 1.0 2.0 100 100
+ 0.13328 1 2 cbr 210 ------- 6 1.0 2.0 119 119
- 0.13328 1 2 cbr 210 ------- 6 1.0 2.0 119 119
r 0.133288 1 2 cbr 210 ------- 6 1.0 2.0 101 101
+ 0.1344 1 2 cbr 210 ------- 6 1.0 2.0 120 120
- 0.1344 1 2 cbr 210 ------- 6 1.0 2.0 120 120
r 0.134408 1 2 cbr 210 ------- 6 1.0 2.0 102 102
+ 0.13552 1 2 cbr 210 ------- 6 1.0 2.0 121 121
- 0.13552 1 2 cbr 210 ------- 6 1.0 2.0 121 121
r 0.135528 1 2 cbr 210 ------- 6 1.0 2.0 103 103
+ 0.13664 1 2 cbr 210 ------- 6 1.0 2.0 122 122
- 0.13664 1 2 cbr 210 ------- 6 1.0 2.0 122 122
r 0.136648 1 2 cbr 210 ------- 6 1.0 2.0 104 104
+ 0.13776 1 2 cbr 210 ------- 6 1.0 2.0 123 123
- 0.13776 1 2 cbr 210 ------- 6 1.0 2.0 123 123
r 0.137768 1 2 cbr 210 ------- 6 1.0 2.0 105 105
+ 0.13888 1 2 cbr 210 ------- 6 1.0 2.0 124 124
- 0.13888 1 2 cbr 210 ------- 6 1.0 2.0 124 124
r 0.138888 1 2 cbr 210 ------- 6 1.0 2.0 106 106
+ 0.14 1 2 cbr 210 ------- 6 1.0 2.0 125 125
- 0.14 1 2 cbr 210 ------- 6 1.0 2.0 125 125
r 0.140008 1 2 cbr 210 ------- 6 1.0 2.0 107 107
+ 0.14112 1 2 cbr 210 ------- 6 1.0 2.0 126 126
- 0.14112 1 2 cbr 210 ------- 6 1.0 2.0 126 126
r 0.141128 1 2 cbr 210 ------- 6 1.0 2.0 108 108
+ 0.14224 1 2 cbr 210 ------- 6 1.0 2.0 127 127
- 0.14224 1 2 cbr 210 ------- 6 1.0 2.0 127 127
r 0.142248 1 2 cbr 210 ------- 6 1.0 2.0 109 109
+ 0.14336 1 2 cbr 210 ------- 6 1.0 2.0 128 128
- 0.14336 1 2 cbr 210 ------- 6 1.0 2.0 128 128
r 0.143368 1 2 cbr 210 ------- 6 1.0 2.0 110 110
+ 0.14448 1 2 cbr 210 ------- 6 1.0 2.0 129 129
- 0.14448 1 2 cbr 210 ------- 6 1.0 2.0 129 129
r 0.144488 1 2 cbr 210 ------- 6 1.0 2.0 111 111
+ 0.1456 1 2 cbr 210 ------- 6 1.0 2.0 130 130
- 0.1456 1 2 cbr 210 ------- 6 1.0 2.0 130 130
r 0.145608 1 2 cbr 210 ------- 6 1.0 2.0 112 112
+ 0.14672 1 2 cbr 210 ------- 6 1.0 2.0 131 131
- 0.14672 1 2 cbr 210 ------- 6 1.0 2.0 131 131
r 0.146728 1 2 cbr 210 ------- 6 1.0 2.0 113 113
+ 0.14784 1 2 cbr 210 ------- 6 1.0 2.0 132 132
- 0.14784 1 2 cbr 210 ------- 6 1.0 2.0 132 132
r 0.147848 1 2 cbr 210 ------- 6 1.0 2.0 114 114
+ 0.14896 1 2 cbr 210 ------- 6 1.0 2.0 133 133
- 0.14896 1 2 cbr 210 ------- 6 1.0 2.0 133 133
r 0.148968 1 2 cbr 210 ------- 6 1.0 2.0 115 115
+ 0.15008 1 2 cbr 210 ------- 6 1.0 2.0 134 134
- 0.15008 1 2 cbr 210 ------- 6 1.0 2.0 134 134
r 0.150088 1 2 cbr 210 ------- 6 1.0 2.0 116 116
+ 0.1512 1 2 cbr 210 ------- 6 1.0 2.0 135 135
- 0.1512 1 2 cbr 210 ------- 6 1.0 2.0 135 135
r 0.151208 1 2 cbr 210 ------- 6 1.0 2.0 117 117
+ 0.15232 1 2 cbr 210 ------- 6 1.0 2.0 136 136
- 0.15232 1 2 cbr 210 ------- 6 1.0 2.0 136 136
r 0.152328 1 2 cbr 210 ------- 6 1.0 2.0 118 118
+ 0.15344 1 2 cbr 210 ------- 6 1.0 2.0 137 137
- 0.15344 1 2 cbr 210 ------- 6 1.0 2.0 137 137
r 0.153448 1 2 cbr 210 ------- 6 1.0 2.0 119 119
+ 0.15456 1 2 cbr 210 ------- 6 1.0 2.0 138 138
- 0.15456 1 2 cbr 210 ------- 6 1.0 2.0 138 138
r 0.154568 1 2 cbr 210 ------- 6 1.0 2.0 120 120
+ 0.15568 1 2 cbr 210 ------- 6 1.0 2.0 139 139
- 0.15568 1 2 cbr 210 ------- 6 1.0 2.0 139 139
r 0.155688 1 2 cbr 210 ------- 6 1.0 2.0 121 121
+ 0.1568 1 2 cbr 210 ------- 6 1.0 2.0 140 140
- 0.1568 1 2 cbr 210 ------- 6 1.0 2.0 140 140
r 0.156808 1 2 cbr 210 ------- 6 1.0 2.0 122 122
+ 0.15792 1 2 cbr 210 ------- 6 1.0 2.0 141 141
- 0.15792 1 2 cbr 210 ------- 6 1.0 2.0 141 141
r 0.157928 1 2 cbr 210 ------- 6 1.0 2.0 123 123
+ 0.15904 1 2 cbr 210 ------- 6 1.0 2.0 142 142
- 0.15904 1 2 cbr 210 ------- 6 1.0 2.0 142 142
r 0.159048 1 2 cbr 210 ------- 6 1.0 2.0 124 124
+ 0.16016 1 2 cbr 210 ------- 6 1.0 2.0 143 143
- 0.16016 1 2 cbr 210 ------- 6 1.0 2.0 143 143
r 0.160168 1 2 cbr 210 ------- 6 1.0 2.0 125 125
+ 0.16128 1 2 cbr 210 ------- 6 1.0 2.0 144 144
- 0.16128 1 2 cbr 210 ------- 6 1.0 2.0 144 144
r 0.161288 1 2 cbr 210 ------- 6 1.0 2.0 126 126
+ 0.1624 1 2 cbr 210 ------- 6 1.0 2.0 145 145
- 0.1624 1 2 cbr 210 ------- 6 1.0 2.0 145 145
r 0.162408 1 2 cbr 210 ------- 6 1.0 2.0 127 127
+ 0.16352 1 2 cbr 210 ------- 6 1.0 2.0 146 146
- 0.16352 1 2 cbr 210 ------- 6 1.0 2.0 146 146
r 0.163528 1 2 cbr 210 ------- 6 1.0 2.0 128 128
+ 0.16464 1 2 cbr 210 ------- 6 1.0 2.0 147 147
- 0.16464 1 2 cbr 210 ------- 6 1.0 2.0 147 147
r 0.164648 1 2 cbr 210 ------- 6 1.0 2.0 129 129
+ 0.16576 1 2 cbr 210 ------- 6 1.0 2.0 148 148
- 0.16576 1 2 cbr 210 ------- 6 1.0 2.0 148 148
r 0.165768 1 2 cbr 210 ------- 6 1.0 2.0 130 130
+ 0.16688 1 2 cbr 210 ------- 6 1.0 2.0 149 149
- 0.16688 1 2 cbr 210 ------- 6 1.0 2.0 149 149
r 0.166888 1 2 cbr 210 ------- 6 1.0 2.0 131 131
+ 0.168 1 2 cbr 210 ------- 6 1.0 2.0 150 150
- 0.168 1 2 cbr 210 ------- 6 1.0 2.0 150 150
r 0.168008 1 2 cbr 210 ------- 6 1.0 2.0 132 132
+ 0.16912 1 2 cbr 210 ------- 6 1.0 2.0 151 151
- 0.16912 1 2 cbr 210 ------- 6 1.0 2.0 151 151
r 0.169128 1 2 cbr 210 ------- 6 1.0 2.0 133 133
+ 0.17024 1 2 cbr 210 ------- 6 1.0 2.0 152 152
- 0.17024 1 2 cbr 210 ------- 6 1.0 2.0 152 152
r 0.170248 1 2 cbr 210 ------- 6 1.0 2.0 134 134
+ 0.17136 1 2 cbr 210 ------- 6 1.0 2.0 153 153
- 0.17136 1 2 cbr 210 ------- 6 1.0 2.0 153 153
r 0.171368 1 2 cbr 210 ------- 6 1.0 2.0 135 135
+ 0.17248 1 2 cbr 210 ------- 6 1.0 2.0 154 154
- 0.17248 1 2 cbr 210 ------- 6 1.0 2.0 154 154
r 0.172488 1 2 cbr 210 ------- 6 1.0 2.0 136 136
+ 0.1736 1 2 cbr 210 ------- 6 1.0 2.0 155 155
- 0.1736 1 2 cbr 210 ------- 6 1.0 2.0 155 155
r 0.173608 1 2 cbr 210 ------- 6 1.0 2.0 137 137
+ 0.17472 1 2 cbr 210 ------- 6 1.0 2.0 156 156
- 0.17472 1 2 cbr 210 ------- 6 1.0 2.0 156 156
r 0.174728 1 2 cbr 210 ------- 6 1.0 2.0 138 138
+ 0.17584 1 2 cbr 210 ------- 6 1.0 2.0 157 157
- 0.17584 1 2 cbr 210 ------- 6 1.0 2.0 157 157
r 0.175848 1 2 cbr 210 ------- 6 1.0 2.0 139 139
+ 0.17696 1 2 cbr 210 ------- 6 1.0 2.0 158 158
- 0.17696 1 2 cbr 210 ------- 6 1.0 2.0 158 158
r 0.176968 1 2 cbr 210 ------- 6 1.0 2.0 140 140
+ 0.17808 1 2 cbr 210 ------- 6 1.0 2.0 159 159
- 0.17808 1 2 cbr 210 ------- 6 1.0 2.0 159 159
r 0.178088 1 2 cbr 210 ------- 6 1.0 2.0 141 141
+ 0.1792 1 2 cbr 210 ------- 6 1.0 2.0 160 160
- 0.1792 1 2 cbr 210 ------- 6 1.0 2.0 160 160
r 0.179208 1 2 cbr 210 ------- 6 1.0 2.0 142 142
+ 0.18032 1 2 cbr 210 ------- 6 1.0 2.0 161 161
- 0.18032 1 2 cbr 210 ------- 6 1.0 2.0 161 161
r 0.180328 1 2 cbr 210 ------- 6 1.0 2.0 143 143
+ 0.18144 1 2 cbr 210 ------- 6 1.0 2.0 162 162
- 0.18144 1 2 cbr 210 ------- 6 1.0 2.0 162 162
r 0.181448 1 2 cbr 210 ------- 6 1.0 2.0 144 144
+ 0.18256 1 2 cbr 210 ------- 6 1.0 2.0 163 163
- 0.18256 1 2 cbr 210 ------- 6 1.0 2.0 163 163
r 0.182568 1 2 cbr 210 ------- 6 1.0 2.0 145 145
+ 0.18368 1 2 cbr 210 ------- 6 1.0 2.0 164 164
- 0.18368 1 2 cbr 210 ------- 6 1.0 2.0 164 164
r 0.183688 1 2 cbr 210 ------- 6 1.0 2.0 146 146
+ 0.1848 1 2 cbr 210 ------- 6 1.0 2.0 165 165
- 0.1848 1 2 cbr 210 ------- 6 1.0 2.0 165 165
r 0.184808 1 2 cbr 210 ------- 6 1.0 2.0 147 147
+ 0.18592 1 2 cbr 210 ------- 6 1.0 2.0 166 166
- 0.18592 1 2 cbr 210 ------- 6 1.0 2.0 166 166
r 0.185928 1 2 cbr 210 ------- 6 1.0 2.0 148 148
+ 0.18704 1 2 cbr 210 ------- 6 1.0 2.0 167 167
- 0.18704 1 2 cbr 210 ------- 6 1.0 2.0 167 167
r 0.187048 1 2 cbr 210 ------- 6 1.0 2.0 149 149
+ 0.18816 1 2 cbr 210 ------- 6 1.0 2.0 168 168
- 0.18816 1 2 cbr 210 ------- 6 1.0 2.0 168 168
r 0.188168 1 2 cbr 210 ------- 6 1.0 2.0 150 150
+ 0.18928 1 2 cbr 210 ------- 6 1.0 2.0 169 169
- 0.18928 1 2 cbr 210 ------- 6 1.0 2.0 169 169
r 0.189288 1 2 cbr 210 ------- 6 1.0 2.0 151 151
+ 0.1904 1 2 cbr 210 ------- 6 1.0 2.0 170 170
- 0.1904 1 2 cbr 210 ------- 6 1.0 2.0 170 170
r 0.190408 1 2 cbr 210 ------- 6 1.0 2.0 152 152
+ 0.19152 1 2 cbr 210 ------- 6 1.0 2.0 171 171
- 0.19152 1 2 cbr 210 ------- 6 1.0 2.0 171 171
r 0.191528 1 2 cbr 210 ------- 6 1.0 2.0 153 153
+ 0.19264 1 2 cbr 210 ------- 6 1.0 2.0 172 172
- 0.19264 1 2 cbr 210 ------- 6 1.0 2.0 172 172
r 0.192648 1 2 cbr 210 ------- 6 1.0 2.0 154 154
+ 0.19376 1 2 cbr 210 ------- 6 1.0 2.0 173 173
- 0.19376 1 2 cbr 210 ------- 6 1.0 2.0 173 173
r 0.193768 1 2 cbr 210 ------- 6 1.0 2.0 155 155
+ 0.19488 1 2 cbr 210 ------- 6 1.0 2.0 174 174
- 0.19488 1 2 cbr 210 ------- 6 1.0 2.0 174 174
r 0.194888 1 2 cbr 210 ------- 6 1.0 2.0 156 156
+ 0.196 1 2 cbr 210 ------- 6 1.0 2.0 175 175
- 0.196 1 2 cbr 210 ------- 6 1.0 2.0 175 175
r 0.196008 1 2 cbr 210 ------- 6 1.0 2.0 157 157
+ 0.19712 1 2 cbr 210 ------- 6 1.0 2.0 176 176
- 0.19712 1 2 cbr 210 ------- 6 1.0 2.0 176 176
r 0.197128 1 2 cbr 210 ------- 6 1.0 2.0 158 158
+ 0.19824 1 2 cbr 210 ------- 6 1.0 2.0 177 177
- 0.19824 1 2 cbr 210 ------- 6 1.0 2.0 177 177
r 0.198248 1 2 cbr 210 ------- 6 1.0 2.0 159 159
+ 0.19936 1 2 cbr 210 ------- 6 1.0 2.0 178 178
- 0.19936 1 2 cbr 210 ------- 6 1.0 2.0 178 178
r 0.199368 1 2 cbr 210 ------- 6 1.0 2.0 160 160
+ 0.20048 1 2 cbr 210 ------- 6 1.0 2.0 179 179
- 0.20048 1 2 cbr 210 ------- 6 1.0 2.0 179 179
r 0.200488 1 2 cbr 210 ------- 6 1.0 2.0 161 161
+ 0.2016 1 2 cbr 210 ------- 6 1.0 2.0 180 180
- 0.2016 1 2 cbr 210 ------- 6 1.0 2.0 180 180
r 0.201608 1 2 cbr 210 ------- 6 1.0 2.0 162 162
+ 0.20272 1 2 cbr 210 ------- 6 1.0 2.0 181 181
- 0.20272 1 2 cbr 210 ------- 6 1.0 2.0 181 181
r 0.202728 1 2 cbr 210 ------- 6 1.0 2.0 163 163
+ 0.20384 1 2 cbr 210 ------- 6 1.0 2.0 182 182
- 0.20384 1 2 cbr 210 ------- 6 1.0 2.0 182 182
r 0.203848 1 2 cbr 210 ------- 6 1.0 2.0 164 164
+ 0.20496 1 2 cbr 210 ------- 6 1.0 2.0 183 183
- 0.20496 1 2 cbr 210 ------- 6 1.0 2.0 183 183
r 0.204968 1 2 cbr 210 ------- 6 1.0 2.0 165 165
+ 0.20608 1 2 cbr 210 ------- 6 1.0 2.0 184 184
- 0.20608 1 2 cbr 210 ------- 6 1.0 2.0 184 184
r 0.206088 1 2 cbr 210 ------- 6 1.0 2.0 166 166
+ 0.2072 1 2 cbr 210 ------- 6 1.0 2.0 185 185
- 0.2072 1 2 cbr 210 ------- 6 1.0 2.0 185 185
r 0.207208 1 2 cbr 210 ------- 6 1.0 2.0 167 167
+ 0.20832 1 2 cbr 210 ------- 6 1.0 2.0 186 186
- 0.20832 1 2 cbr 210 ------- 6 1.0 2.0 186 186
r 0.208328 1 2 cbr 210 ------- 6 1.0 2.0 168 168
+ 0.20944 1 2 cbr 210 ------- 6 1.0 2.0 187 187
- 0.20944 1 2 cbr 210 ------- 6 1.0 2.0 187 187
r 0.209448 1 2 cbr 210 ------- 6 1.0 2.0 169 169
+ 0.21056 1 2 cbr 210 ------- 6 1.0 2.0 188 188
- 0.21056 1 2 cbr 210 ------- 6 1.0 2.0 188 188
r 0.210568 1 2 cbr 210 ------- 6 1.0 2.0 170 170
+ 0.21168 1 2 cbr 210 ------- 6 1.0 2.0 189 189
- 0.21168 1 2 cbr 210 ------- 6 1.0 2.0 189 189
r 0.211688 1 2 cbr 210 ------- 6 1.0 2.0 171 171
+ 0.2128 1 2 cbr 210 ------- 6 1.0 2.0 190 190
- 0.2128 1 2 cbr 210 ------- 6 1.0 2.0 190 190
r 0.212808 1 2 cbr 210 ------- 6 1.0 2.0 172 172
+ 0.21392 1 2 cbr 210 ------- 6 1.0 2.0 191 191
- 0.21392 1 2 cbr 210 ------- 6 1.0 2.0 191 191
r 0.213928 1 2 cbr 210 ------- 6 1.0 2.0 173 173
+ 0.21504 1 2 cbr 210 ------- 6 1.0 2.0 192 192
- 0.21504 1 2 cbr 210 ------- 6 1.0 2.0 192 192
r 0.215048 1 2 cbr 210 ------- 6 1.0 2.0 174 174
+ 0.21616 1 2 cbr 210 ------- 6 1.0 2.0 193 193
- 0.21616 1 2 cbr 210 ------- 6 1.0 2.0 193 193
r 0.216168 1 2 cbr 210 ------- 6 1.0 2.0 175 175
+ 0.21728 1 2 cbr 210 ------- 6 1.0 2.0 194 194
- 0.21728 1 2 cbr 210 ------- 6 1.0 2.0 194 194
r 0.217288 1 2 cbr 210 ------- 6 1.0 2.0 176 176
+ 0.2184 1 2 cbr 210 ------- 6 1.0 2.0 195 195
- 0.2184 1 2 cbr 210 ------- 6 1.0 2.0 195 195
r 0.218408 1 2 cbr 210 ------- 6 1.0 2.0 177 177
+ 0.21952 1 2 cbr 210 ------- 6 1.0 2.0 196 196
- 0.21952 1 2 cbr 210 ------- 6 1.0 2.0 196 196
r 0.219528 1 2 cbr 210 ------- 6 1.0 2.0 178 178
+ 0.22064 1 2 cbr 210 ------- 6 1.0 2.0 197 197
- 0.22064 1 2 cbr 210 ------- 6 1.0 2.0 197 197
r 0.220648 1 2 cbr 210 ------- 6 1.0 2.0 179 179
+ 0.22176 1 2 cbr 210 ------- 6 1.0 2.0 198 198
- 0.22176 1 2 cbr 210 ------- 6 1.0 2.0 198 198
r 0.221768 1 2 cbr 210 ------- 6 1.0 2.0 180 180
+ 0.22288 1 2 cbr 210 ------- 6 1.0 2.0 199 199
- 0.22288 1 2 cbr 210 ------- 6 1.0 2.0 199 199
r 0.222888 1 2 cbr 210 ------- 6 1.0 2.0 181 181
+ 0.224 1 2 cbr 210 ------- 6 1.0 2.0 200 200
- 0.224 1 2 cbr 210 ------- 6 1.0 2.0 200 200
r 0.224008 1 2 cbr 210 ------- 6 1.0 2.0 182 182
+ 0.22512 1 2 cbr 210 ------- 6 1.0 2.0 201 201
- 0.22512 1 2 cbr 210 ------- 6 1.0 2.0 201 201
r 0.225128 1 2 cbr 210 ------- 6 1.0 2.0 183 183
+ 0.22624 1 2 cbr 210 ------- 6 1.0 2.0 202 202
- 0.22624 1 2 cbr 210 ------- 6 1.0 2.0 202 202
r 0.226248 1 2 cbr 210 ------- 6 1.0 2.0 184 184
+ 0.22736 1 2 cbr 210 ------- 6 1.0 2.0 203 203
- 0.22736 1 2 cbr 210 ------- 6 1.0 2.0 203 203
r 0.227368 1 2 cbr 210 ------- 6 1.0 2.0 185 185
+ 0.22848 1 2 cbr 210 ------- 6 1.0 2.0 204 204
- 0.22848 1 2 cbr 210 ------- 6 1.0 2.0 204 204
r 0.228488 1 2 cbr 210 ------- 6 1.0 2.0 186 186
+ 0.2296 1 2 cbr 210 ------- 6 1.0 2.0 205 205
- 0.2296 1 2 cbr 210 ------- 6 1.0 2.0 205 205
r 0.229608 1 2 cbr 210 ------- 6 1.0 2.0 187 187
+ 0.23072 1 2 cbr 210 ------- 6 1.0 2.0 206 206
- 0.23072 1 2 cbr 210 ------- 6 1.0 2.0 206 206
r 0.230728 1 2 cbr 210 ------- 6 1.0 2.0 188 188
+ 0.23184 1 2 cbr 210 ------- 6 1.0 2.0 207 207
- 0.23184 1 2 cbr 210 ------- 6 1.0 2.0 207 207
r 0.231848 1 2 cbr 210 ------- 6 1.0 2.0 189 189
+ 0.23296 1 2 cbr 210 ------- 6 1.0 2.0 208 208
- 0.23296 1 2 cbr 210 ------- 6 1.0 2.0 208 208
r 0.232968 1 2 cbr 210 ------- 6 1.0 2.0 190 190
+ 0.23408 1 2 cbr 210 ------- 6 1.0 2.0 209 209
- 0.23408 1 2 cbr 210 ------- 6 1.0 2.0 209 209
r 0.234088 1 2 cbr 210 ------- 6 1.0 2.0 191 191
+ 0.2352 1 2 cbr 210 ------- 6 1.0 2.0 210 210
- 0.2352 1 2 cbr 210 ------- 6 1.0 2.0 210 210
r 0.235208 1 2 cbr 210 ------- 6 1.0 2.0 192 192
+ 0.23632 1 2 cbr 210 ------- 6 1.0 2.0 211 211
- 0.23632 1 2 cbr 210 ------- 6 1.0 2.0 211 211
r 0.236328 1 2 cbr 210 ------- 6 1.0 2.0 193 193
+ 0.23744 1 2 cbr 210 ------- 6 1.0 2.0 212 212
- 0.23744 1 2 cbr 210 ------- 6 1.0 2.0 212 212
r 0.237448 1 2 cbr 210 ------- 6 1.0 2.0 194 194
+ 0.23856 1 2 cbr 210 ------- 6 1.0 2.0 213 213
- 0.23856 1 2 cbr 210 ------- 6 1.0 2.0 213 213
r 0.238568 1 2 cbr 210 ------- 6 1.0 2.0 195 195
+ 0.23968 1 2 cbr 210 ------- 6 1.0 2.0 214 214
- 0.23968 1 2 cbr 210 ------- 6 1.0 2.0 214 214
r 0.239688 1 2 cbr 210 ------- 6 1.0 2.0 196 196
+ 0.2408 1 2 cbr 210 ------- 6 1.0 2.0 215 215
- 0.2408 1 2 cbr 210 ------- 6 1.0 2.0 215 215
r 0.240808 1 2 cbr 210 ------- 6 1.0 2.0 197 197
+ 0.24192 1 2 cbr 210 ------- 6 1.0 2.0 216 216
- 0.24192 1 2 cbr 210 ------- 6 1.0 2.0 216 216
r 0.241928 1 2 cbr 210 ------- 6 1.0 2.0 198 198
+ 0.24304 1 2 cbr 210 ------- 6 1.0 2.0 217 217
- 0.24304 1 2 cbr 210 ------- 6 1.0 2.0 217 217
r 0.243048 1 2 cbr 210 ------- 6 1.0 2.0 199 199
+ 0.24416 1 2 cbr 210 ------- 6 1.0 2.0 218 218