+ 0 1 2 cbr 210 ------- 6 1.0 2.0 0 0
- 0 1 2 cbr 210 ------- 6 1.0 2.0 0 0
+ 0.00028 1 2 cbr 210 ------- 6 1.0 2.0 1 1
+ 0.00056 1 2 cbr 210 ------- 6 1.0 2.0 2 2
+ 0.00084 1 2 cbr 210 ------- 6 1.0 2.0 3 3
+ 0.00112 1 2 cbr 210 ------- 6 1.0 2.0 4 4
+ 0.0014 1 2 cbr 210 ------- 6 1.0 2.0 5 5
+ 0.00168 1 2 cbr 210 ------- 6 1.0 2.0 6 6
- 0.00168 1 2 cbr 210 ------- 6 1.0 2.0 1 1
+ 0.00196 1 2 cbr 210 ------- 6 1.0 2.0 7 7
+ 0.00224 1 2 cbr 210 ------- 6 1.0 2.0 8 8
+ 0.00252 1 2 cbr 210 ------- 6 1.0 2.0 9 9
+ 0.0028 1 2 cbr 210 ------- 6 1.0 2.0 10 10
+ 0.00308 1 2 cbr 210 ------- 6 1.0 2.0 11 11
+ 0.00336 1 2 cbr 210 ------- 6 1.0 2.0 12 12
- 0.00336 1 2 cbr 210 ------- 6 1.0 2.0 2 2
+ 0.00364 1 2 cbr 210 ------- 6 1.0 2.0 13 13
+ 0.00392 1 2 cbr 210 ------- 6 1.0 2.0 14 14
+ 0.0042 1 2 cbr 210 ------- 6 1.0 2.0 15 15
+ 0.00448 1 2 cbr 210 ------- 6 1.0 2.0 16 16
+ 0.00476 1 2 cbr 210 ------- 6 1.0 2.0 17 17
+ 0.00504 1 2 cbr 210 ------- 6 1.0 2.0 18 18
- 0.00504 1 2 cbr 210 ------- 6 1.0 2.0 3 3
+ 0.00532 1 2 cbr 210 ------- 6 1.0 2.0 19 19
+ 0.0056 1 2 cbr 210 ------- 6 1.0 2.0 20 20
+ 0.00588 1 2 cbr 210 ------- 6 1.0 2.0 21 21
+ 0.00616 1 2 cbr 210 ------- 6 1.0 2.0 22 22
+ 0.00644 1 2 cbr 210 ------- 6 1.0 2.0 23 23
d 0.00644 1 2 cbr 210 ------- 6 1.0 2.0 23 23
+ 0.00672 1 2 cbr 210 ------- 6 1.0 2.0 24 24
d 0.00672 1 2 cbr 210 ------- 6 1.0 2.0 24 24
- 0.00672 1 2 cbr 210 ------- 6 1.0 2.0 4 4
+ 0.007 1 2 cbr 210 ------- 6 1.0 2.0 25 25
+ 0.00728 1 2 cbr 210 ------- 6 1.0 2.0 26 26
d 0.00728 1 2 cbr 210 ------- 6 1.0 2.0 26 26
+ 0.00756 1 2 cbr 210 ------- 6 1.0 2.0 27 27
d 0.00756 1 2 cbr 210 ------- 6 1.0 2.0 27 27
+ 0.00784 1 2 cbr 210 ------- 6 1.0 2.0 28 28
d 0.00784 1 2 cbr 210 ------- 6 1.0 2.0 28 28
+ 0.00812 1 2 cbr 210 ------- 6 1.0 2.0 29 29
d 0.00812 1 2 cbr 210 ------- 6 1.0 2.0 29 29
+ 0.0084 1 2 cbr 210 ------- 6 1.0 2.0 30 30
d 0.0084 1 2 cbr 210 ------- 6 1.0 2.0 30 30
- 0.0084 1 2 cbr 210 ------- 6 1.0 2.0 5 5
+ 0.00868 1 2 cbr 210 ------- 6 1.0 2.0 31 31
+ 0.00896 1 2 cbr 210 ------- 6 1.0 2.0 32 32
d 0.00896 1 2 cbr 210 ------- 6 1.0 2.0 32 32
+ 0.00924 1 2 cbr 210 ------- 6 1.0 2.0 33 33
d 0.00924 1 2 cbr 210 ------- 6 1.0 2.0 33 33
+ 0.00952 1 2 cbr 210 ------- 6 1.0 2.0 34 34
d 0.00952 1 2 cbr 210 ------- 6 1.0 2.0 34 34
+ 0.0098 1 2 cbr 210 ------- 6 1.0 2.0 35 35
d 0.0098 1 2 cbr 210 ------- 6 1.0 2.0 35 35
- 0.01008 1 2 cbr 210 ------- 6 1.0 2.0 6 6
+ 0.01008 1 2 cbr 210 ------- 6 1.0 2.0 36 36
+ 0.01036 1 2 cbr 210 ------- 6 1.0 2.0 37 37
d 0.01036 1 2 cbr 210 ------- 6 1.0 2.0 37 37
+ 0.01064 1 2 cbr 210 ------- 6 1.0 2.0 38 38
d 0.01064 1 2 cbr 210 ------- 6 1.0 2.0 38 38
+ 0.01092 1 2 cbr 210 ------- 6 1.0 2.0 39 39
d 0.01092 1 2 cbr 210 ------- 6 1.0 2.0 39 39
+ 0.0112 1 2 cbr 210 ------- 6 1.0 2.0 40 40
d 0.0112 1 2 cbr 210 ------- 6 1.0 2.0 40 40
+ 0.01148 1 2 cbr 210 ------- 6 1.0 2.0 41 41
d 0.01148 1 2 cbr 210 ------- 6 1.0 2.0 41 41
- 0.01176 1 2 cbr 210 ------- 6 1.0 2.0 7 7
+ 0.01176 1 2 cbr 210 ------- 6 1.0 2.0 42 42
+ 0.01204 1 2 cbr 210 ------- 6 1.0 2.0 43 43
d 0.01204 1 2 cbr 210 ------- 6 1.0 2.0 43 43
+ 0.01232 1 2 cbr 210 ------- 6 1.0 2.0 44 44
d 0.01232 1 2 cbr 210 ------- 6 1.0 2.0 44 44
+ 0.0126 1 2 cbr 210 ------- 6 1.0 2.0 45 45
d 0.0126 1 2 cbr 210 ------- 6 1.0 2.0 45 45
+ 0.01288 1 2 cbr 210 ------- 6 1.0 2.0 46 46
d 0.01288 1 2 cbr 210 ------- 6 1.0 2.0 46 46
+ 0.01316 1 2 cbr 210 ------- 6 1.0 2.0 47 47
d 0.01316 1 2 cbr 210 ------- 6 1.0 2.0 47 47
- 0.01344 1 2 cbr 210 ------- 6 1.0 2.0 8 8
+ 0.01344 1 2 cbr 210 ------- 6 1.0 2.0 48 48
+ 0.01372 1 2 cbr 210 ------- 6 1.0 2.0 49 49
d 0.01372 1 2 cbr 210 ------- 6 1.0 2.0 49 49
+ 0.014 1 2 cbr 210 ------- 6 1.0 2.0 50 50
d 0.014 1 2 cbr 210 ------- 6 1.0 2.0 50 50
+ 0.01428 1 2 cbr 210 ------- 6 1.0 2.0 51 51
d 0.01428 1 2 cbr 210 ------- 6 1.0 2.0 51 51
+ 0.01456 1 2 cbr 210 ------- 6 1.0 2.0 52 52
d 0.01456 1 2 cbr 210 ------- 6 1.0 2.0 52 52
+ 0.01484 1 2 cbr 210 ------- 6 1.0 2.0 53 53
d 0.01484 1 2 cbr 210 ------- 6 1.0 2.0 53 53
- 0.01512 1 2 cbr 210 ------- 6 1.0 2.0 9 9
+ 0.01512 1 2 cbr 210 ------- 6 1.0 2.0 54 54
+ 0.0154 1 2 cbr 210 ------- 6 1.0 2.0 55 55
d 0.0154 1 2 cbr 210 ------- 6 1.0 2.0 55 55
+ 0.01568 1 2 cbr 210 ------- 6 1.0 2.0 56 56
d 0.01568 1 2 cbr 210 ------- 6 1.0 2.0 56 56
+ 0.01596 1 2 cbr 210 ------- 6 1.0 2.0 57 57
d 0.01596 1 2 cbr 210 ------- 6 1.0 2.0 57 57
+ 0.01624 1 2 cbr 210 ------- 6 1.0 2.0 58 58
d 0.01624 1 2 cbr 210 ------- 6 1.0 2.0 58 58
+ 0.01652 1 2 cbr 210 ------- 6 1.0 2.0 59 59
d 0.01652 1 2 cbr 210 ------- 6 1.0 2.0 59 59
- 0.0168 1 2 cbr 210 ------- 6 1.0 2.0 10 10
+ 0.0168 1 2 cbr 210 ------- 6 1.0 2.0 60 60
+ 0.01708 1 2 cbr 210 ------- 6 1.0 2.0 61 61
d 0.01708 1 2 cbr 210 ------- 6 1.0 2.0 61 61
+ 0.01736 1 2 cbr 210 ------- 6 1.0 2.0 62 62
d 0.01736 1 2 cbr 210 ------- 6 1.0 2.0 62 62
+ 0.01764 1 2 cbr 210 ------- 6 1.0 2.0 63 63
d 0.01764 1 2 cbr 210 ------- 6 1.0 2.0 63 63
+ 0.01792 1 2 cbr 210 ------- 6 1.0 2.0 64 64
d 0.01792 1 2 cbr 210 ------- 6 1.0 2.0 64 64
+ 0.0182 1 2 cbr 210 ------- 6 1.0 2.0 65 65
d 0.0182 1 2 cbr 210 ------- 6 1.0 2.0 65 65
- 0.01848 1 2 cbr 210 ------- 6 1.0 2.0 11 11
+ 0.01848 1 2 cbr 210 ------- 6 1.0 2.0 66 66
+ 0.01876 1 2 cbr 210 ------- 6 1.0 2.0 67 67
d 0.01876 1 2 cbr 210 ------- 6 1.0 2.0 67 67
+ 0.01904 1 2 cbr 210 ------- 6 1.0 2.0 68 68
d 0.01904 1 2 cbr 210 ------- 6 1.0 2.0 68 68
+ 0.01932 1 2 cbr 210 ------- 6 1.0 2.0 69 69
d 0.01932 1 2 cbr 210 ------- 6 1.0 2.0 69 69
+ 0.0196 1 2 cbr 210 ------- 6 1.0 2.0 70 70
d 0.0196 1 2 cbr 210 ------- 6 1.0 2.0 70 70
+ 0.01988 1 2 cbr 210 ------- 6 1.0 2.0 71 71
d 0.01988 1 2 cbr 210 ------- 6 1.0 2.0 71 71
+ 0.02016 1 2 cbr 210 ------- 6 1.0 2.0 72 72
d 0.02016 1 2 cbr 210 ------- 6 1.0 2.0 72 72
- 0.02016 1 2 cbr 210 ------- 6 1.0 2.0 12 12
+ 0.02044 1 2 cbr 210 ------- 6 1.0 2.0 73 73
+ 0.02072 1 2 cbr 210 ------- 6 1.0 2.0 74 74
d 0.02072 1 2 cbr 210 ------- 6 1.0 2.0 74 74
+ 0.021 1 2 cbr 210 ------- 6 1.0 2.0 75 75
d 0.021 1 2 cbr 210 ------- 6 1.0 2.0 75 75
+ 0.02128 1 2 cbr 210 ------- 6 1.0 2.0 76 76
d 0.02128 1 2 cbr 210 ------- 6 1.0 2.0 76 76
+ 0.02156 1 2 cbr 210 ------- 6 1.0 2.0 77 77
d 0.02156 1 2 cbr 210 ------- 6 1.0 2.0 77 77
r 0.02168 1 2 cbr 210 ------- 6 1.0 2.0 0 0
+ 0.02184 1 2 cbr 210 ------- 6 1.0 2.0 78 78
d 0.02184 1 2 cbr 210 ------- 6 1.0 2.0 78 78
- 0.02184 1 2 cbr 210 ------- 6 1.0 2.0 13 13
+ 0.02212 1 2 cbr 210 ------- 6 1.0 2.0 79 79
+ 0.0224 1 2 cbr 210 ------- 6 1.0 2.0 80 80
d 0.0224 1 2 cbr 210 ------- 6 1.0 2.0 80 80
+ 0.02268 1 2 cbr 210 ------- 6 1.0 2.0 81 81
d 0.02268 1 2 cbr 210 ------- 6 1.0 2.0 81 81
+ 0.02296 1 2 cbr 210 ------- 6 1.0 2.0 82 82
d 0.02296 1 2 cbr 210 ------- 6 1.0 2.0 82 82
+ 0.02324 1 2 cbr 210 ------- 6 1.0 2.0 83 83
d 0.02324 1 2 cbr 210 ------- 6 1.0 2.0 83 83
r 0.02336 1 2 cbr 210 ------- 6 1.0 2.0 1 1
+ 0.02352 1 2 cbr 210 ------- 6 1.0 2.0 84 84
d 0.02352 1 2 cbr 210 ------- 6 1.0 2.0 84 84
- 0.02352 1 2 cbr 210 ------- 6 1.0 2.0 14 14
+ 0.0238 1 2 cbr 210 ------- 6 1.0 2.0 85 85
+ 0.02408 1 2 cbr 210 ------- 6 1.0 2.0 86 86
d 0.02408 1 2 cbr 210 ------- 6 1.0 2.0 86 86
+ 0.02436 1 2 cbr 210 ------- 6 1.0 2.0 87 87
d 0.02436 1 2 cbr 210 ------- 6 1.0 2.0 87 87
+ 0.02464 1 2 cbr 210 ------- 6 1.0 2.0 88 88
d 0.02464 1 2 cbr 210 ------- 6 1.0 2.0 88 88
+ 0.02492 1 2 cbr 210 ------- 6 1.0 2.0 89 89
d 0.02492 1 2 cbr 210 ------- 6 1.0 2.0 89 89
r 0.02504 1 2 cbr 210 ------- 6 1.0 2.0 2 2
+ 0.0252 1 2 cbr 210 ------- 6 1.0 2.0 90 90
d 0.0252 1 2 cbr 210 ------- 6 1.0 2.0 90 90
- 0.0252 1 2 cbr 210 ------- 6 1.0 2.0 15 15
+ 0.02548 1 2 cbr 210 ------- 6 1.0 2.0 91 91
+ 0.02576 1 2 cbr 210 ------- 6 1.0 2.0 92 92
d 0.02576 1 2 cbr 210 ------- 6 1.0 2.0 92 92
+ 0.02604 1 2 cbr 210 ------- 6 1.0 2.0 93 93
d 0.02604 1 2 cbr 210 ------- 6 1.0 2.0 93 93
+ 0.02632 1 2 cbr 210 ------- 6 1.0 2.0 94 94
d 0.02632 1 2 cbr 210 ------- 6 1.0 2.0 94 94
+ 0.0266 1 2 cbr 210 ------- 6 1.0 2.0 95 95
d 0.0266 1 2 cbr 210 ------- 6 1.0 2.0 95 95
r 0.02672 1 2 cbr 210 ------- 6 1.0 2.0 3 3
+ 0.02688 1 2 cbr 210 ------- 6 1.0 2.0 96 96
d 0.02688 1 2 cbr 210 ------- 6 1.0 2.0 96 96
- 0.02688 1 2 cbr 210 ------- 6 1.0 2.0 16 16
+ 0.02716 1 2 cbr 210 ------- 6 1.0 2.0 97 97
+ 0.02744 1 2 cbr 210 ------- 6 1.0 2.0 98 98
d 0.02744 1 2 cbr 210 ------- 6 1.0 2.0 98 98
+ 0.02772 1 2 cbr 210 ------- 6 1.0 2.0 99 99
d 0.02772 1 2 cbr 210 ------- 6 1.0 2.0 99 99
+ 0.028 1 2 cbr 210 ------- 6 1.0 2.0 100 100
d 0.028 1 2 cbr 210 ------- 6 1.0 2.0 100 100
+ 0.02828 1 2 cbr 210 ------- 6 1.0 2.0 101 101
d 0.02828 1 2 cbr 210 ------- 6 1.0 2.0 101 101
r 0.0284 1 2 cbr 210 ------- 6 1.0 2.0 4 4
+ 0.02856 1 2 cbr 210 ------- 6 1.0 2.0 102 102
d 0.02856 1 2 cbr 210 ------- 6 1.0 2.0 102 102
- 0.02856 1 2 cbr 210 ------- 6 1.0 2.0 17 17
+ 0.02884 1 2 cbr 210 ------- 6 1.0 2.0 103 103
+ 0.02912 1 2 cbr 210 ------- 6 1.0 2.0 104 104
d 0.02912 1 2 cbr 210 ------- 6 1.0 2.0 104 104
+ 0.0294 1 2 cbr 210 ------- 6 1.0 2.0 105 105
d 0.0294 1 2 cbr 210 ------- 6 1.0 2.0 105 105
+ 0.02968 1 2 cbr 210 ------- 6 1.0 2.0 106 106
d 0.02968 1 2 cbr 210 ------- 6 1.0 2.0 106 106
+ 0.02996 1 2 cbr 210 ------- 6 1.0 2.0 107 107
d 0.02996 1 2 cbr 210 ------- 6 1.0 2.0 107 107
r 0.03008 1 2 cbr 210 ------- 6 1.0 2.0 5 5
+ 0.03024 1 2 cbr 210 ------- 6 1.0 2.0 108 108
d 0.03024 1 2 cbr 210 ------- 6 1.0 2.0 108 108
- 0.03024 1 2 cbr 210 ------- 6 1.0 2.0 18 18
+ 0.03052 1 2 cbr 210 ------- 6 1.0 2.0 109 109
+ 0.0308 1 2 cbr 210 ------- 6 1.0 2.0 110 110
d 0.0308 1 2 cbr 210 ------- 6 1.0 2.0 110 110
+ 0.03108 1 2 cbr 210 ------- 6 1.0 2.0 111 111
d 0.03108 1 2 cbr 210 ------- 6 1.0 2.0 111 111
+ 0.03136 1 2 cbr 210 ------- 6 1.0 2.0 112 112
d 0.03136 1 2 cbr 210 ------- 6 1.0 2.0 112 112
+ 0.03164 1 2 cbr 210 ------- 6 1.0 2.0 113 113
d 0.03164 1 2 cbr 210 ------- 6 1.0 2.0 113 113
r 0.03176 1 2 cbr 210 ------- 6 1.0 2.0 6 6
+ 0.03192 1 2 cbr 210 ------- 6 1.0 2.0 114 114
d 0.03192 1 2 cbr 210 ------- 6 1.0 2.0 114 114
- 0.03192 1 2 cbr 210 ------- 6 1.0 2.0 19 19
+ 0.0322 1 2 cbr 210 ------- 6 1.0 2.0 115 115
+ 0.03248 1 2 cbr 210 ------- 6 1.0 2.0 116 116
d 0.03248 1 2 cbr 210 ------- 6 1.0 2.0 116 116
+ 0.03276 1 2 cbr 210 ------- 6 1.0 2.0 117 117
d 0.03276 1 2 cbr 210 ------- 6 1.0 2.0 117 117
+ 0.03304 1 2 cbr 210 ------- 6 1.0 2.0 118 118
d 0.03304 1 2 cbr 210 ------- 6 1.0 2.0 118 118
+ 0.03332 1 2 cbr 210 ------- 6 1.0 2.0 119 119
d 0.03332 1 2 cbr 210 ------- 6 1.0 2.0 119 119
r 0.03344 1 2 cbr 210 ------- 6 1.0 2.0 7 7
+ 0.0336 1 2 cbr 210 ------- 6 1.0 2.0 120 120
d 0.0336 1 2 cbr 210 ------- 6 1.0 2.0 120 120
- 0.0336 1 2 cbr 210 ------- 6 1.0 2.0 20 20
+ 0.03388 1 2 cbr 210 ------- 6 1.0 2.0 121 121
+ 0.03416 1 2 cbr 210 ------- 6 1.0 2.0 122 122
d 0.03416 1 2 cbr 210 ------- 6 1.0 2.0 122 122
+ 0.03444 1 2 cbr 210 ------- 6 1.0 2.0 123 123
d 0.03444 1 2 cbr 210 ------- 6 1.0 2.0 123 123
+ 0.03472 1 2 cbr 210 ------- 6 1.0 2.0 124 124
d 0.03472 1 2 cbr 210 ------- 6 1.0 2.0 124 124
+ 0.035 1 2 cbr 210 ------- 6 1.0 2.0 125 125
d 0.035 1 2 cbr 210 ------- 6 1.0 2.0 125 125
r 0.03512 1 2 cbr 210 ------- 6 1.0 2.0 8 8
+ 0.03528 1 2 cbr 210 ------- 6 1.0 2.0 126 126
d 0.03528 1 2 cbr 210 ------- 6 1.0 2.0 126 126
- 0.03528 1 2 cbr 210 ------- 6 1.0 2.0 21 21
+ 0.03556 1 2 cbr 210 ------- 6 1.0 2.0 127 127
+ 0.03584 1 2 cbr 210 ------- 6 1.0 2.0 128 128
d 0.03584 1 2 cbr 210 ------- 6 1.0 2.0 128 128
+ 0.03612 1 2 cbr 210 ------- 6 1.0 2.0 129 129
d 0.03612 1 2 cbr 210 ------- 6 1.0 2.0 129 129
+ 0.0364 1 2 cbr 210 ------- 6 1.0 2.0 130 130
d 0.0364 1 2 cbr 210 ------- 6 1.0 2.0 130 130
+ 0.03668 1 2 cbr 210 ------- 6 1.0 2.0 131 131
d 0.03668 1 2 cbr 210 ------- 6 1.0 2.0 131 131
r 0.0368 1 2 cbr 210 ------- 6 1.0 2.0 9 9
- 0.03696 1 2 cbr 210 ------- 6 1.0 2.0 22 22
+ 0.03696 1 2 cbr 210 ------- 6 1.0 2.0 132 132
+ 0.03724 1 2 cbr 210 ------- 6 1.0 2.0 133 133
d 0.03724 1 2 cbr 210 ------- 6 1.0 2.0 133 133
+ 0.03752 1 2 cbr 210 ------- 6 1.0 2.0 134 134
d 0.03752 1 2 cbr 210 ------- 6 1.0 2.0 134 134
+ 0.0378 1 2 cbr 210 ------- 6 1.0 2.0 135 135
d 0.0378 1 2 cbr 210 ------- 6 1.0 2.0 135 135
+ 0.03808 1 2 cbr 210 ------- 6 1.0 2.0 136 136
d 0.03808 1 2 cbr 210 ------- 6 1.0 2.0 136 136
+ 0.03836 1 2 cbr 210 ------- 6 1.0 2.0 137 137
d 0.03836 1 2 cbr 210 ------- 6 1.0 2.0 137 137
r 0.03848 1 2 cbr 210 ------- 6 1.0 2.0 10 10
- 0.03864 1 2 cbr 210 ------- 6 1.0 2.0 25 25
+ 0.03864 1 2 cbr 210 ------- 6 1.0 2.0 138 138
+ 0.03892 1 2 cbr 210 ------- 6 1.0 2.0 139 139
d 0.03892 1 2 cbr 210 ------- 6 1.0 2.0 139 139
+ 0.0392 1 2 cbr 210 ------- 6 1.0 2.0 140 140
d 0.0392 1 2 cbr 210 ------- 6 1.0 2.0 140 140
+ 0.03948 1 2 cbr 210 ------- 6 1.0 2.0 141 141
d 0.03948 1 2 cbr 210 ------- 6 1.0 2.0 141 141
+ 0.03976 1 2 cbr 210 ------- 6 1.0 2.0 142 142
d 0.03976 1 2 cbr 210 ------- 6 1.0 2.0 142 142
+ 0.04004 1 2 cbr 210 ------- 6 1.0 2.0 143 143
d 0.04004 1 2 cbr 210 ------- 6 1.0 2.0 143 143
r 0.04016 1 2 cbr 210 ------- 6 1.0 2.0 11 11
- 0.04032 1 2 cbr 210 ------- 6 1.0 2.0 31 31
+ 0.04032 1 2 cbr 210 ------- 6 1.0 2.0 144 144
+ 0.0406 1 2 cbr 210 ------- 6 1.0 2.0 145 145
d 0.0406 1 2 cbr 210 ------- 6 1.0 2.0 145 145
+ 0.04088 1 2 cbr 210 ------- 6 1.0 2.0 146 146
d 0.04088 1 2 cbr 210 ------- 6 1.0 2.0 146 146
+ 0.04116 1 2 cbr 210 ------- 6 1.0 2.0 147 147
d 0.04116 1 2 cbr 210 ------- 6 1.0 2.0 147 147
+ 0.04144 1 2 cbr 210 ------- 6 1.0 2.0 148 148
d 0.04144 1 2 cbr 210 ------- 6 1.0 2.0 148 148
+ 0.04172 1 2 cbr 210 ------- 6 1.0 2.0 149 149
d 0.04172 1 2 cbr 210 ------- 6 1.0 2.0 149 149
r 0.04184 1 2 cbr 210 ------- 6 1.0 2.0 12 12
- 0.042 1 2 cbr 210 ------- 6 1.0 2.0 36 36
+ 0.042 1 2 cbr 210 ------- 6 1.0 2.0 150 150
+ 0.04228 1 2 cbr 210 ------- 6 1.0 2.0 151 151
d 0.04228 1 2 cbr 210 ------- 6 1.0 2.0 151 151
+ 0.04256 1 2 cbr 210 ------- 6 1.0 2.0 152 152
d 0.04256 1 2 cbr 210 ------- 6 1.0 2.0 152 152
+ 0.04284 1 2 cbr 210 ------- 6 1.0 2.0 153 153
d 0.04284 1 2 cbr 210 ------- 6 1.0 2.0 153 153
+ 0.04312 1 2 cbr 210 ------- 6 1.0 2.0 154 154
d 0.04312 1 2 cbr 210 ------- 6 1.0 2.0 154 154
+ 0.0434 1 2 cbr 210 ------- 6 1.0 2.0 155 155
d 0.0434 1 2 cbr 210 ------- 6 1.0 2.0 155 155
r 0.04352 1 2 cbr 210 ------- 6 1.0 2.0 13 13
- 0.04368 1 2 cbr 210 ------- 6 1.0 2.0 42 42
+ 0.04368 1 2 cbr 210 ------- 6 1.0 2.0 156 156
+ 0.04396 1 2 cbr 210 ------- 6 1.0 2.0 157 157
d 0.04396 1 2 cbr 210 ------- 6 1.0 2.0 157 157
+ 0.04424 1 2 cbr 210 ------- 6 1.0 2.0 158 158
d 0.04424 1 2 cbr 210 ------- 6 1.0 2.0 158 158
+ 0.04452 1 2 cbr 210 ------- 6 1.0 2.0 159 159
d 0.04452 1 2 cbr 210 ------- 6 1.0 2.0 159 159
+ 0.0448 1 2 cbr 210 ------- 6 1.0 2.0 160 160
d 0.0448 1 2 cbr 210 ------- 6 1.0 2.0 160 160
+ 0.04508 1 2 cbr 210 ------- 6 1.0 2.0 161 161
d 0.04508 1 2 cbr 210 ------- 6 1.0 2.0 161 161
r 0.0452 1 2 cbr 210 ------- 6 1.0 2.0 14 14
- 0.04536 1 2 cbr 210 ------- 6 1.0 2.0 48 48
+ 0.04536 1 2 cbr 210 ------- 6 1.0 2.0 162 162
+ 0.04564 1 2 cbr 210 ------- 6 1.0 2.0 163 163
d 0.04564 1 2 cbr 210 ------- 6 1.0 2.0 163 163
+ 0.04592 1 2 cbr 210 ------- 6 1.0 2.0 164 164
d 0.04592 1 2 cbr 210 ------- 6 1.0 2.0 164 164
+ 0.0462 1 2 cbr 210 ------- 6 1.0 2.0 165 165
d 0.0462 1 2 cbr 210 ------- 6 1.0 2.0 165 165
+ 0.04648 1 2 cbr 210 ------- 6 1.0 2.0 166 166
d 0.04648 1 2 cbr 210 ------- 6 1.0 2.0 166 166
+ 0.04676 1 2 cbr 210 ------- 6 1.0 2.0 167 167
d 0.04676 1 2 cbr 210 ------- 6 1.0 2.0 167 167
r 0.04688 1 2 cbr 210 ------- 6 1.0 2.0 15 15
- 0.04704 1 2 cbr 210 ------- 6 1.0 2.0 54 54
+ 0.04704 1 2 cbr 210 ------- 6 1.0 2.0 168 168
+ 0.04732 1 2 cbr 210 ------- 6 1.0 2.0 169 169
d 0.04732 1 2 cbr 210 ------- 6 1.0 2.0 169 169
+ 0.0476 1 2 cbr 210 ------- 6 1.0 2.0 170 170
d 0.0476 1 2 cbr 210 ------- 6 1.0 2.0 170 170
+ 0.04788 1 2 cbr 210 ------- 6 1.0 2.0 171 171
d 0.04788 1 2 cbr 210 ------- 6 1.0 2.0 171 171
+ 0.04816 1 2 cbr 210 ------- 6 1.0 2.0 172 172
d 0.04816 1 2 cbr 210 ------- 6 1.0 2.0 172 172
+ 0.04844 1 2 cbr 210 ------- 6 1.0 2.0 173 173
d 0.04844 1 2 cbr 210 ------- 6 1.0 2.0 173 173
r 0.04856 1 2 cbr 210 ------- 6 1.0 2.0 16 16
- 0.04872 1 2 cbr 210 ------- 6 1.0 2.0 60 60
+ 0.04872 1 2 cbr 210 ------- 6 1.0 2.0 174 174
+ 0.049 1 2 cbr 210 ------- 6 1.0 2.0 175 175
d 0.049 1 2 cbr 210 ------- 6 1.0 2.0 175 175
+ 0.04928 1 2 cbr 210 ------- 6 1.0 2.0 176 176
d 0.04928 1 2 cbr 210 ------- 6 1.0 2.0 176 176
+ 0.04956 1 2 cbr 210 ------- 6 1.0 2.0 177 177
d 0.04956 1 2 cbr 210 ------- 6 1.0 2.0 177 177
+ 0.04984 1 2 cbr 210 ------- 6 1.0 2.0 178 178
d 0.04984 1 2 cbr 210 ------- 6 1.0 2.0 178 178
+ 0.05012 1 2 cbr 210 ------- 6 1.0 2.0 179 179
d 0.05012 1 2 cbr 210 ------- 6 1.0 2.0 179 179
r 0.05024 1 2 cbr 210 ------- 6 1.0 2.0 17 17
- 0.0504 1 2 cbr 210 ------- 6 1.0 2.0 66 66
+ 0.0504 1 2 cbr 210 ------- 6 1.0 2.0 180 180
+ 0.05068 1 2 cbr 210 ------- 6 1.0 2.0 181 181
d 0.05068 1 2 cbr 210 ------- 6 1.0 2.0 181 181
+ 0.05096 1 2 cbr 210 ------- 6 1.0 2.0 182 182
d 0.05096 1 2 cbr 210 ------- 6 1.0 2.0 182 182
+ 0.05124 1 2 cbr 210 ------- 6 1.0 2.0 183 183
d 0.05124 1 2 cbr 210 ------- 6 1.0 2.0 183 183
+ 0.05152 1 2 cbr 210 ------- 6 1.0 2.0 184 184
d 0.05152 1 2 cbr 210 ------- 6 1.0 2.0 184 184
+ 0.0518 1 2 cbr 210 ------- 6 1.0 2.0 185 185
d 0.0518 1 2 cbr 210 ------- 6 1.0 2.0 185 185
r 0.05192 1 2 cbr 210 ------- 6 1.0 2.0 18 18
- 0.05208 1 2 cbr 210 ------- 6 1.0 2.0 73 73
+ 0.05208 1 2 cbr 210 ------- 6 1.0 2.0 186 186
+ 0.05236 1 2 cbr 210 ------- 6 1.0 2.0 187 187
d 0.05236 1 2 cbr 210 ------- 6 1.0 2.0 187 187
+ 0.05264 1 2 cbr 210 ------- 6 1.0 2.0 188 188
d 0.05264 1 2 cbr 210 ------- 6 1.0 2.0 188 188
+ 0.05292 1 2 cbr 210 ------- 6 1.0 2.0 189 189
d 0.05292 1 2 cbr 210 ------- 6 1.0 2.0 189 189
+ 0.0532 1 2 cbr 210 ------- 6 1.0 2.0 190 190
d 0.0532 1 2 cbr 210 ------- 6 1.0 2.0 190 190
+ 0.05348 1 2 cbr 210 ------- 6 1.0 2.0 191 191
d 0.05348 1 2 cbr 210 ------- 6 1.0 2.0 191 191
r 0.0536 1 2 cbr 210 ------- 6 1.0 2.0 19 19
- 0.05376 1 2 cbr 210 ------- 6 1.0 2.0 79 79
+ 0.05376 1 2 cbr 210 ------- 6 1.0 2.0 192 192
+ 0.05404 1 2 cbr 210 ------- 6 1.0 2.0 193 193
d 0.05404 1 2 cbr 210 ------- 6 1.0 2.0 193 193
+ 0.05432 1 2 cbr 210 ------- 6 1.0 2.0 194 194
d 0.05432 1 2 cbr 210 ------- 6 1.0 2.0 194 194
+ 0.0546 1 2 cbr 210 ------- 6 1.0 2.0 195 195
d 0.0546 1 2 cbr 210 ------- 6 1.0 2.0 195 195
+ 0.05488 1 2 cbr 210 ------- 6 1.0 2.0 196 196
d 0.05488 1 2 cbr 210 ------- 6 1.0 2.0 196 196
+ 0.05516 1 2 cbr 210 ------- 6 1.0 2.0 197 197
d 0.05516 1 2 cbr 210 ------- 6 1.0 2.0 197 197
r 0.05528 1 2 cbr 210 ------- 6 1.0 2.0 20 20
- 0.05544 1 2 cbr 210 ------- 6 1.0 2.0 85 85
+ 0.05544 1 2 cbr 210 ------- 6 1.0 2.0 198 198
+ 0.05572 1 2 cbr 210 ------- 6 1.0 2.0 199 199
d 0.05572 1 2 cbr 210 ------- 6 1.0 2.0 199 199
+ 0.056 1 2 cbr 210 ------- 6 1.0 2.0 200 200
d 0.056 1 2 cbr 210 ------- 6 1.0 2.0 200 200
+ 0.05628 1 2 cbr 210 ------- 6 1.0 2.0 201 201
d 0.05628 1 2 cbr 210 ------- 6 1.0 2.0 201 201
+ 0.05656 1 2 cbr 210 ------- 6 1.0 2.0 202 202
d 0.05656 1 2 cbr 210 ------- 6 1.0 2.0 202 202
+ 0.05684 1 2 cbr 210 ------- 6 1.0 2.0 203 203
d 0.05684 1 2 cbr 210 ------- 6 1.0 2.0 203 203
r 0.05696 1 2 cbr 210 ------- 6 1.0 2.0 21 21
- 0.05712 1 2 cbr 210 ------- 6 1.0 2.0 91 91
+ 0.05712 1 2 cbr 210 ------- 6 1.0 2.0 204 204
+ 0.0574 1 2 cbr 210 ------- 6 1.0 2.0 205 205
d 0.0574 1 2 cbr 210 ------- 6 1.0 2.0 205 205
+ 0.05768 1 2 cbr 210 ------- 6 1.0 2.0 206 206
d 0.05768 1 2 cbr 210 ------- 6 1.0 2.0 206 206
+ 0.05796 1 2 cbr 210 ------- 6 1.0 2.0 207 207
d 0.05796 1 2 cbr 210 ------- 6 1.0 2.0 207 207
+ 0.05824 1 2 cbr 210 ------- 6 1.0 2.0 208 208
d 0.05824 1 2 cbr 210 ------- 6 1.0 2.0 208 208
+ 0.05852 1 2 cbr 210 ------- 6 1.0 2.0 209 209
d 0.05852 1 2 cbr 210 ------- 6 1.0 2.0 209 209
r 0.05864 1 2 cbr 210 ------- 6 1.0 2.0 22 22
- 0.0588 1 2 cbr 210 ------- 6 1.0 2.0 97 97
+ 0.0588 1 2 cbr 210 ------- 6 1.0 2.0 210 210
+ 0.05908 1 2 cbr 210 ------- 6 1.0 2.0 211 211
d 0.05908 1 2 cbr 210 ------- 6 1.0 2.0 211 211
+ 0.05936 1 2 cbr 210 ------- 6 1.0 2.0 212 212
d 0.05936 1 2 cbr 210 ------- 6 1.0 2.0 212 212
+ 0.05964 1 2 cbr 210 ------- 6 1.0 2.0 213 213
d 0.05964 1 2 cbr 210 ------- 6 1.0 2.0 213 213
+ 0.05992 1 2 cbr 210 ------- 6 1.0 2.0 214 214
d 0.05992 1 2 cbr 210 ------- 6 1.0 2.0 214 214
+ 0.0602 1 2 cbr 210 ------- 6 1.0 2.0 215 215
d 0.0602 1 2 cbr 210 ------- 6 1.0 2.0 215 215
r 0.06032 1 2 cbr 210 ------- 6 1.0 2.0 25 25
- 0.06048 1 2 cbr 210 ------- 6 1.0 2.0 103 103
+ 0.06048 1 2 cbr 210 ------- 6 1.0 2.0 216 216
+ 0.06076 1 2 cbr 210 ------- 6 1.0 2.0 217 217
d 0.06076 1 2 cbr 210 ------- 6 1.0 2.0 217 217
+ 0.06104 1 2 cbr 210 ------- 6 1.0 2.0 218 218
d 0.06104 1 2 cbr 210 ------- 6 1.0 2.0 218 218
+ 0.06132 1 2 cbr 210 ------- 6 1.0 2.0 219 219
d 0.06132 1 2 cbr 210 ------- 6 1.0 2.0 219 219
+ 0.0616 1 2 cbr 210 ------- 6 1.0 2.0 220 220
d 0.0616 1 2 cbr 210 ------- 6 1.0 2.0 220 220
+ 0.06188 1 2 cbr 210 ------- 6 1.0 2.0 221 221
d 0.06188 1 2 cbr 210 ------- 6 1.0 2.0 221 221
r 0.062 1 2 cbr 210 ------- 6 1.0 2.0 31 31
- 0.06216 1 2 cbr 210 ------- 6 1.0 2.0 109 109
+ 0.06216 1 2 cbr 210 ------- 6 1.0 2.0 222 222
+ 0.06244 1 2 cbr 210 ------- 6 1.0 2.0 223 223
d 0.06244 1 2 cbr 210 ------- 6 1.0 2.0 223 223
+ 0.06272 1 2 cbr 210 ------- 6 1.0 2.0 224 224
d 0.06272 1 2 cbr 210 ------- 6 1.0 2.0 224 224
+ 0.063 1 2 cbr 210 ------- 6 1.0 2.0 225 225
d 0.063 1 2 cbr 210 ------- 6 1.0 2.0 225 225
+ 0.06328 1 2 cbr 210 ------- 6 1.0 2.0 226 226
d 0.06328 1 2 cbr 210 ------- 6 1.0 2.0 226 226
+ 0.06356 1 2 cbr 210 ------- 6 1.0 2.0 227 227
d 0.06356 1 2 cbr 210 ------- 6 1.0 2.0 227 227
r 0.06368 1 2 cbr 210 ------- 6 1.0 2.0 36 36
- 0.06384 1 2 cbr 210 ------- 6 1.0 2.0 115 115
+ 0.06384 1 2 cbr 210 ------- 6 1.0 2.0 228 228
+ 0.06412 1 2 cbr 210 ------- 6 1.0 2.0 229 229
d 0.06412 1 2 cbr 210 ------- 6 1.0 2.0 229 229
+ 0.0644 1 2 cbr 210 ------- 6 1.0 2.0 230 230
d 0.0644 1 2 cbr 210 ------- 6 1.0 2.0 230 230
+ 0.06468 1 2 cbr 210 ------- 6 1.0 2.0 231 231
d 0.06468 1 2 cbr 210 ------- 6 1.0 2.0 231 231
+ 0.06496 1 2 cbr 210 ------- 6 1.0 2.0 232 232
d 0.06496 1 2 cbr 210 ------- 6 1.0 2.0 232 232
+ 0.06524 1 2 cbr 210 ------- 6 1.0 2.0 233 233
d 0.06524 1 2 cbr 210 ------- 6 1.0 2.0 233 233
r 0.06536 1 2 cbr 210 ------- 6 1.0 2.0 42 42
- 0.06552 1 2 cbr 210 ------- 6 1.0 2.0 121 121
+ 0.06552 1 2 cbr 210 ------- 6 1.0 2.0 234 234
+ 0.0658 1 2 cbr 210 ------- 6 1.0 2.0 235 235
d 0.0658 1 2 cbr 210 ------- 6 1.0 2.0 235 235
+ 0.06608 1 2 cbr 210 ------- 6 1.0 2.0 236 236
d 0.06608 1 2 cbr 210 ------- 6 1.0 2.0 236 236
+ 0.06636 1 2 cbr 210 ------- 6 1.0 2.0 237 237
d 0.06636 1 2 cbr 210 ------- 6 1.0 2.0 237 237
+ 0.06664 1 2 cbr 210 ------- 6 1.0 2.0 238 238
d 0.06664 1 2 cbr 210 ------- 6 1.0 2.0 238 238
+ 0.06692 1 2 cbr 210 ------- 6 1.0 2.0 239 239
d 0.06692 1 2 cbr 210 ------- 6 1.0 2.0 239 239
r 0.06704 1 2 cbr 210 ------- 6 1.0 2.0 48 48
- 0.0672 1 2 cbr 210 ------- 6 1.0 2.0 127 127
+ 0.0672 1 2 cbr 210 ------- 6 1.0 2.0 240 240
+ 0.06748 1 2 cbr 210 ------- 6 1.0 2.0 241 241
d 0.06748 1 2 cbr 210 ------- 6 1.0 2.0 241 241
+ 0.06776 1 2 cbr 210 ------- 6 1.0 2.0 242 242
d 0.06776 1 2 cbr 210 ------- 6 1.0 2.0 242 242
+ 0.06804 1 2 cbr 210 ------- 6 1.0 2.0 243 243
d 0.06804 1 2 cbr 210 ------- 6 1.0 2.0 243 243
+ 0.06832 1 2 cbr 210 ------- 6 1.0 2.0 244 244
d 0.06832 1 2 cbr 210 ------- 6 1.0 2.0 244 244
+ 0.0686 1 2 cbr 210 ------- 6 1.0 2.0 245 245
d 0.0686 1 2 cbr 210 ------- 6 1.0 2.0 245 245
r 0.06872 1 2 cbr 210 ------- 6 1.0 2.0 54 54
- 0.06888 1 2 cbr 210 ------- 6 1.0 2.0 132 132
+ 0.06888 1 2 cbr 210 ------- 6 1.0 2.0 246 246
+ 0.06916 1 2 cbr 210 ------- 6 1.0 2.0 247 247
d 0.06916 1 2 cbr 210 ------- 6 1.0 2.0 247 247
+ 0.06944 1 2 cbr 210 ------- 6 1.0 2.0 248 248
d 0.06944 1 2 cbr 210 ------- 6 1.0 2.0 248 248
+ 0.06972 1 2 cbr 210 ------- 6 1.0 2.0 249 249
d 0.06972 1 2 cbr 210 ------- 6 1.0 2.0 249 249
+ 0.07 1 2 cbr 210 ------- 6 1.0 2.0 250 250
d 0.07 1 2 cbr 210 ------- 6 1.0 2.0 250 250
+ 0.07028 1 2 cbr 210 ------- 6 1.0 2.0 251 251
d 0.07028 1 2 cbr 210 ------- 6 1.0 2.0 251 251
r 0.0704 1 2 cbr 210 ------- 6 1.0 2.0 60 60
- 0.07056 1 2 cbr 210 ------- 6 1.0 2.0 138 138
+ 0.07056 1 2 cbr 210 ------- 6 1.0 2.0 252 252
+ 0.07084 1 2 cbr 210 ------- 6 1.0 2.0 253 253
d 0.07084 1 2 cbr 210 ------- 6 1.0 2.0 253 253
+ 0.07112 1 2 cbr 210 ------- 6 1.0 2.0 254 254
d 0.07112 1 2 cbr 210 ------- 6 1.0 2.0 254 254
+ 0.0714 1 2 cbr 210 ------- 6 1.0 2.0 255 255
d 0.0714 1 2 cbr 210 ------- 6 1.0 2.0 255 255
+ 0.07168 1 2 cbr 210 ------- 6 1.0 2.0 256 256
d 0.07168 1 2 cbr 210 ------- 6 1.0 2.0 256 256
+ 0.07196 1 2 cbr 210 ------- 6 1.0 2.0 257 257
d 0.07196 1 2 cbr 210 ------- 6 1.0 2.0 257 257
r 0.07208 1 2 cbr 210 ------- 6 1.0 2.0 66 66
- 0.07224 1 2 cbr 210 ------- 6 1.0 2.0 144 144
+ 0.07224 1 2 cbr 210 ------- 6 1.0 2.0 258 258
+ 0.07252 1 2 cbr 210 ------- 6 1.0 2.0 259 259
d 0.07252 1 2 cbr 210 ------- 6 1.0 2.0 259 259
+ 0.0728 1 2 cbr 210 ------- 6 1.0 2.0 260 260
d 0.0728 1 2 cbr 210 ------- 6 1.0 2.0 260 260
+ 0.07308 1 2 cbr 210 ------- 6 1.0 2.0 261 261
d 0.07308 1 2 cbr 210 ------- 6 1.0 2.0 261 261
+ 0.07336 1 2 cbr 210 ------- 6 1.0 2.0 262 262
d 0.07336 1 2 cbr 210 ------- 6 1.0 2.0 262 262
+ 0.07364 1 2 cbr 210 ------- 6 1.0 2.0 263 263
d 0.07364 1 2 cbr 210 ------- 6 1.0 2.0 263 263
r 0.07376 1 2 cbr 210 ------- 6 1.0 2.0 73 73
- 0.07392 1 2 cbr 210 ------- 6 1.0 2.0 150 150
+ 0.07392 1 2 cbr 210 ------- 6 1.0 2.0 264 264
+ 0.0742 1 2 cbr 210 ------- 6 1.0 2.0 265 265
d 0.0742 1 2 cbr 210 ------- 6 1.0 2.0 265 265
+ 0.07448 1 2 cbr 210 ------- 6 1.0 2.0 266 266
d 0.07448 1 2 cbr 210 ------- 6 1.0 2.0 266 266
+ 0.07476 1 2 cbr 210 ------- 6 1.0 2.0 267 267
d 0.07476 1 2 cbr 210 ------- 6 1.0 2.0 267 267
+ 0.07504 1 2 cbr 210 ------- 6 1.0 2.0 268 268
d 0.07504 1 2 cbr 210 ------- 6 1.0 2.0 268 268
+ 0.07532 1 2 cbr 210 ------- 6 1.0 2.0 269 269
d 0.07532 1 2 cbr 210 ------- 6 1.0 2.0 269 269
r 0.07544 1 2 cbr 210 ------- 6 1.0 2.0 79 79
- 0.0756 1 2 cbr 210 ------- 6 1.0 2.0 156 156
+ 0.0756 1 2 cbr 210 ------- 6 1.0 2.0 270 270
+ 0.07588 1 2 cbr 210 ------- 6 1.0 2.0 271 271
d 0.07588 1 2 cbr 210 ------- 6 1.0 2.0 271 271
+ 0.07616 1 2 cbr 210 ------- 6 1.0 2.0 272 272
d 0.07616 1 2 cbr 210 ------- 6 1.0 2.0 272 272
+ 0.07644 1 2 cbr 210 ------- 6 1.0 2.0 273 273
d 0.07644 1 2 cbr 210 ------- 6 1.0 2.0 273 273
+ 0.07672 1 2 cbr 210 ------- 6 1.0 2.0 274 274
d 0.07672 1 2 cbr 210 ------- 6 1.0 2.0 274 274
+ 0.077 1 2 cbr 210 ------- 6 1.0 2.0 275 275
d 0.077 1 2 cbr 210 ------- 6 1.0 2.0 275 275
r 0.07712 1 2 cbr 210 ------- 6 1.0 2.0 85 85
- 0.07728 1 2 cbr 210 ------- 6 1.0 2.0 162 162
+ 0.07728 1 2 cbr 210 ------- 6 1.0 2.0 276 276
+ 0.07756 1 2 cbr 210 ------- 6 1.0 2.0 277 277
d 0.07756 1 2 cbr 210 ------- 6 1.0 2.0 277 277
+ 0.07784 1 2 cbr 210 ------- 6 1.0 2.0 278 278
d 0.07784 1 2 cbr 210 ------- 6 1.0 2.0 278 278
+ 0.07812 1 2 cbr 210 ------- 6 1.0 2.0 279 279
d 0.07812 1 2 cbr 210 ------- 6 1.0 2.0 279 279
+ 0.0784 1 2 cbr 210 ------- 6 1.0 2.0 280 280
d 0.0784 1 2 cbr 210 ------- 6 1.0 2.0 280 280
+ 0.07868 1 2 cbr 210 ------- 6 1.0 2.0 281 281
d 0.07868 1 2 cbr 210 ------- 6 1.0 2.0 281 281
r 0.0788 1 2 cbr 210 ------- 6 1.0 2.0 91 91
- 0.07896 1 2 cbr 210 ------- 6 1.0 2.0 168 168
+ 0.07896 1 2 cbr 210 ------- 6 1.0 2.0 282 282
+ 0.07924 1 2 cbr 210 ------- 6 1.0 2.0 283 283
d 0.07924 1 2 cbr 210 ------- 6 1.0 2.0 283 283
+ 0.07952 1 2 cbr 210 ------- 6 1.0 2.0 284 284
d 0.07952 1 2 cbr 210 ------- 6 1.0 2.0 284 284
+ 0.0798 1 2 cbr 210 ------- 6 1.0 2.0 285 285
d 0.0798 1 2 cbr 210 ------- 6 1.0 2.0 285 285
+ 0.08008 1 2 cbr 210 ------- 6 1.0 2.0 286 286
d 0.08008 1 2 cbr 210 ------- 6 1.0 2.0 286 286
+ 0.08036 1 2 cbr 210 ------- 6 1.0 2.0 287 287
d 0.08036 1 2 cbr 210 ------- 6 1.0 2.0 287 287
r 0.08048 1 2 cbr 210 ------- 6 1.0 2.0 97 97
- 0.08064 1 2 cbr 210 ------- 6 1.0 2.0 174 174
+ 0.08064 1 2 cbr 210 ------- 6 1.0 2.0 288 288
+ 0.08092 1 2 cbr 210 ------- 6 1.0 2.0 289 289
d 0.08092 1 2 cbr 210 ------- 6 1.0 2.0 289 289
+ 0.0812 1 2 cbr 210 ------- 6 1.0 2.0 290 290
d 0.0812 1 2 cbr 210 ------- 6 1.0 2.0 290 290
+ 0.08148 1 2 cbr 210 ------- 6 1.0 2.0 291 291
d 0.08148 1 2 cbr 210 ------- 6 1.0 2.0 291 291
+ 0.08176 1 2 cbr 210 ------- 6 1.0 2.0 292 292
d 0.08176 1 2 cbr 210 ------- 6 1.0 2.0 292 292
+ 0.08204 1 2 cbr 210 ------- 6 1.0 2.0 293 293
d 0.08204 1 2 cbr 210 ------- 6 1.0 2.0 293 293
r 0.08216 1 2 cbr 210 ------- 6 1.0 2.0 103 103
- 0.08232 1 2 cbr 210 ------- 6 1.0 2.0 180 180
+ 0.08232 1 2 cbr 210 ------- 6 1.0 2.0 294 294
+ 0.0826 1 2 cbr 210 ------- 6 1.0 2.0 295 295
d 0.0826 1 2 cbr 210 ------- 6 1.0 2.0 295 295
+ 0.08288 1 2 cbr 210 ------- 6 1.0 2.0 296 296
d 0.08288 1 2 cbr 210 ------- 6 1.0 2.0 296 296
+ 0.08316 1 2 cbr 210 ------- 6 1.0 2.0 297 297
d 0.08316 1 2 cbr 210 ------- 6 1.0 2.0 297 297
+ 0.08344 1 2 cbr 210 ------- 6 1.0 2.0 298 298
d 0.08344 1 2 cbr 210 ------- 6 1.0 2.0 298 298
+ 0.08372 1 2 cbr 210 ------- 6 1.0 2.0 299 299
d 0.08372 1 2 cbr 210 ------- 6 1.0 2.0 299 299
r 0.08384 1 2 cbr 210 ------- 6 1.0 2.0 109 109
- 0.084 1 2 cbr 210 ------- 6 1.0 2.0 186 186
+ 0.084 1 2 cbr 210 ------- 6 1.0 2.0 300 300
+ 0.08428 1 2 cbr 210 ------- 6 1.0 2.0 301 301
d 0.08428 1 2 cbr 210 ------- 6 1.0 2.0 301 301
+ 0.08456 1 2 cbr 210 ------- 6 1.0 2.0 302 302
d 0.08456 1 2 cbr 210 ------- 6 1.0 2.0 302 302
+ 0.08484 1 2 cbr 210 ------- 6 1.0 2.0 303 303
d 0.08484 1 2 cbr 210 ------- 6 1.0 2.0 303 303
+ 0.08512 1 2 cbr 210 ------- 6 1.0 2.0 304 304
d 0.08512 1 2 cbr 210 ------- 6 1.0 2.0 304 304
+ 0.0854 1 2 cbr 210 ------- 6 1.0 2.0 305 305
d 0.0854 1 2 cbr 210 ------- 6 1.0 2.0 305 305
r 0.08552 1 2 cbr 210 ------- 6 1.0 2.0 115 115
- 0.08568 1 2 cbr 210 ------- 6 1.0 2.0 192 192
+ 0.08568 1 2 cbr 210 ------- 6 1.0 2.0 306 306
+ 0.08596 1 2 cbr 210 ------- 6 1.0 2.0 307 307
d 0.08596 1 2 cbr 210 ------- 6 1.0 2.0 307 307
+ 0.08624 1 2 cbr 210 ------- 6 1.0 2.0 308 308
d 0.08624 1 2 cbr 210 ------- 6 1.0 2.0 308 308
+ 0.08652 1 2 cbr 210 ------- 6 1.0 2.0 309 309