+ 0 1 2 cbr 210 ------- 6 1.0 2.0 0 0
- 0 1 2 cbr 210 ------- 6 1.0 2.0 0 0
+ 0.000373 1 2 cbr 210 ------- 6 1.0 2.0 1 1
- 0.000373 1 2 cbr 210 ------- 6 1.0 2.0 1 1
+ 0.000747 1 2 cbr 210 ------- 6 1.0 2.0 2 2
- 0.000747 1 2 cbr 210 ------- 6 1.0 2.0 2 2
+ 0.00112 1 2 cbr 210 ------- 6 1.0 2.0 3 3
- 0.00112 1 2 cbr 210 ------- 6 1.0 2.0 3 3
+ 0.001493 1 2 cbr 210 ------- 6 1.0 2.0 4 4
- 0.001493 1 2 cbr 210 ------- 6 1.0 2.0 4 4
+ 0.001867 1 2 cbr 210 ------- 6 1.0 2.0 5 5
- 0.001867 1 2 cbr 210 ------- 6 1.0 2.0 5 5
+ 0.00224 1 2 cbr 210 ------- 6 1.0 2.0 6 6
- 0.00224 1 2 cbr 210 ------- 6 1.0 2.0 6 6
+ 0.002613 1 2 cbr 210 ------- 6 1.0 2.0 7 7
- 0.002613 1 2 cbr 210 ------- 6 1.0 2.0 7 7
+ 0.002987 1 2 cbr 210 ------- 6 1.0 2.0 8 8
- 0.002987 1 2 cbr 210 ------- 6 1.0 2.0 8 8
+ 0.00336 1 2 cbr 210 ------- 6 1.0 2.0 9 9
- 0.00336 1 2 cbr 210 ------- 6 1.0 2.0 9 9
+ 0.003733 1 2 cbr 210 ------- 6 1.0 2.0 10 10
- 0.003733 1 2 cbr 210 ------- 6 1.0 2.0 10 10
+ 0.004107 1 2 cbr 210 ------- 6 1.0 2.0 11 11
- 0.004107 1 2 cbr 210 ------- 6 1.0 2.0 11 11
+ 0.00448 1 2 cbr 210 ------- 6 1.0 2.0 12 12
- 0.00448 1 2 cbr 210 ------- 6 1.0 2.0 12 12
+ 0.004853 1 2 cbr 210 ------- 6 1.0 2.0 13 13
- 0.004853 1 2 cbr 210 ------- 6 1.0 2.0 13 13
+ 0.005227 1 2 cbr 210 ------- 6 1.0 2.0 14 14
- 0.005227 1 2 cbr 210 ------- 6 1.0 2.0 14 14
+ 0.0056 1 2 cbr 210 ------- 6 1.0 2.0 15 15
- 0.0056 1 2 cbr 210 ------- 6 1.0 2.0 15 15
+ 0.005973 1 2 cbr 210 ------- 6 1.0 2.0 16 16
- 0.005973 1 2 cbr 210 ------- 6 1.0 2.0 16 16
+ 0.006347 1 2 cbr 210 ------- 6 1.0 2.0 17 17
- 0.006347 1 2 cbr 210 ------- 6 1.0 2.0 17 17
+ 0.00672 1 2 cbr 210 ------- 6 1.0 2.0 18 18
- 0.00672 1 2 cbr 210 ------- 6 1.0 2.0 18 18
+ 0.007093 1 2 cbr 210 ------- 6 1.0 2.0 19 19
- 0.007093 1 2 cbr 210 ------- 6 1.0 2.0 19 19
+ 0.007467 1 2 cbr 210 ------- 6 1.0 2.0 20 20
- 0.007467 1 2 cbr 210 ------- 6 1.0 2.0 20 20
+ 0.00784 1 2 cbr 210 ------- 6 1.0 2.0 21 21
- 0.00784 1 2 cbr 210 ------- 6 1.0 2.0 21 21
+ 0.008213 1 2 cbr 210 ------- 6 1.0 2.0 22 22
- 0.008213 1 2 cbr 210 ------- 6 1.0 2.0 22 22
+ 0.008587 1 2 cbr 210 ------- 6 1.0 2.0 23 23
- 0.008587 1 2 cbr 210 ------- 6 1.0 2.0 23 23
+ 0.00896 1 2 cbr 210 ------- 6 1.0 2.0 24 24
- 0.00896 1 2 cbr 210 ------- 6 1.0 2.0 24 24
+ 0.009333 1 2 cbr 210 ------- 6 1.0 2.0 25 25
- 0.009333 1 2 cbr 210 ------- 6 1.0 2.0 25 25
+ 0.009707 1 2 cbr 210 ------- 6 1.0 2.0 26 26
- 0.009707 1 2 cbr 210 ------- 6 1.0 2.0 26 26
+ 0.01008 1 2 cbr 210 ------- 6 1.0 2.0 27 27
- 0.01008 1 2 cbr 210 ------- 6 1.0 2.0 27 27
+ 0.010453 1 2 cbr 210 ------- 6 1.0 2.0 28 28
- 0.010453 1 2 cbr 210 ------- 6 1.0 2.0 28 28
+ 0.010827 1 2 cbr 210 ------- 6 1.0 2.0 29 29
- 0.010827 1 2 cbr 210 ------- 6 1.0 2.0 29 29
+ 0.0112 1 2 cbr 210 ------- 6 1.0 2.0 30 30
- 0.0112 1 2 cbr 210 ------- 6 1.0 2.0 30 30
+ 0.011573 1 2 cbr 210 ------- 6 1.0 2.0 31 31
- 0.011573 1 2 cbr 210 ------- 6 1.0 2.0 31 31
+ 0.011947 1 2 cbr 210 ------- 6 1.0 2.0 32 32
- 0.011947 1 2 cbr 210 ------- 6 1.0 2.0 32 32
+ 0.01232 1 2 cbr 210 ------- 6 1.0 2.0 33 33
- 0.01232 1 2 cbr 210 ------- 6 1.0 2.0 33 33
+ 0.012693 1 2 cbr 210 ------- 6 1.0 2.0 34 34
- 0.012693 1 2 cbr 210 ------- 6 1.0 2.0 34 34
+ 0.013067 1 2 cbr 210 ------- 6 1.0 2.0 35 35
- 0.013067 1 2 cbr 210 ------- 6 1.0 2.0 35 35
+ 0.01344 1 2 cbr 210 ------- 6 1.0 2.0 36 36
- 0.01344 1 2 cbr 210 ------- 6 1.0 2.0 36 36
+ 0.013813 1 2 cbr 210 ------- 6 1.0 2.0 37 37
- 0.013813 1 2 cbr 210 ------- 6 1.0 2.0 37 37
+ 0.014187 1 2 cbr 210 ------- 6 1.0 2.0 38 38
- 0.014187 1 2 cbr 210 ------- 6 1.0 2.0 38 38
+ 0.01456 1 2 cbr 210 ------- 6 1.0 2.0 39 39
- 0.01456 1 2 cbr 210 ------- 6 1.0 2.0 39 39
+ 0.014933 1 2 cbr 210 ------- 6 1.0 2.0 40 40
- 0.014933 1 2 cbr 210 ------- 6 1.0 2.0 40 40
+ 0.015307 1 2 cbr 210 ------- 6 1.0 2.0 41 41
- 0.015307 1 2 cbr 210 ------- 6 1.0 2.0 41 41
+ 0.01568 1 2 cbr 210 ------- 6 1.0 2.0 42 42
- 0.01568 1 2 cbr 210 ------- 6 1.0 2.0 42 42
+ 0.016053 1 2 cbr 210 ------- 6 1.0 2.0 43 43
- 0.016053 1 2 cbr 210 ------- 6 1.0 2.0 43 43
+ 0.016427 1 2 cbr 210 ------- 6 1.0 2.0 44 44
- 0.016427 1 2 cbr 210 ------- 6 1.0 2.0 44 44
+ 0.0168 1 2 cbr 210 ------- 6 1.0 2.0 45 45
- 0.0168 1 2 cbr 210 ------- 6 1.0 2.0 45 45
+ 0.017173 1 2 cbr 210 ------- 6 1.0 2.0 46 46
- 0.017173 1 2 cbr 210 ------- 6 1.0 2.0 46 46
+ 0.017547 1 2 cbr 210 ------- 6 1.0 2.0 47 47
- 0.017547 1 2 cbr 210 ------- 6 1.0 2.0 47 47
+ 0.01792 1 2 cbr 210 ------- 6 1.0 2.0 48 48
- 0.01792 1 2 cbr 210 ------- 6 1.0 2.0 48 48
+ 0.018293 1 2 cbr 210 ------- 6 1.0 2.0 49 49
- 0.018293 1 2 cbr 210 ------- 6 1.0 2.0 49 49
+ 0.018667 1 2 cbr 210 ------- 6 1.0 2.0 50 50
- 0.018667 1 2 cbr 210 ------- 6 1.0 2.0 50 50
+ 0.01904 1 2 cbr 210 ------- 6 1.0 2.0 51 51
- 0.01904 1 2 cbr 210 ------- 6 1.0 2.0 51 51
+ 0.019413 1 2 cbr 210 ------- 6 1.0 2.0 52 52
- 0.019413 1 2 cbr 210 ------- 6 1.0 2.0 52 52
+ 0.019787 1 2 cbr 210 ------- 6 1.0 2.0 53 53
- 0.019787 1 2 cbr 210 ------- 6 1.0 2.0 53 53
+ 0.02016 1 2 cbr 210 ------- 6 1.0 2.0 54 54
- 0.02016 1 2 cbr 210 ------- 6 1.0 2.0 54 54
r 0.020168 1 2 cbr 210 ------- 6 1.0 2.0 0 0
+ 0.020533 1 2 cbr 210 ------- 6 1.0 2.0 55 55
- 0.020533 1 2 cbr 210 ------- 6 1.0 2.0 55 55
r 0.020541 1 2 cbr 210 ------- 6 1.0 2.0 1 1
+ 0.020907 1 2 cbr 210 ------- 6 1.0 2.0 56 56
- 0.020907 1 2 cbr 210 ------- 6 1.0 2.0 56 56
r 0.020915 1 2 cbr 210 ------- 6 1.0 2.0 2 2
+ 0.02128 1 2 cbr 210 ------- 6 1.0 2.0 57 57
- 0.02128 1 2 cbr 210 ------- 6 1.0 2.0 57 57
r 0.021288 1 2 cbr 210 ------- 6 1.0 2.0 3 3
+ 0.021653 1 2 cbr 210 ------- 6 1.0 2.0 58 58
- 0.021653 1 2 cbr 210 ------- 6 1.0 2.0 58 58
r 0.021661 1 2 cbr 210 ------- 6 1.0 2.0 4 4
+ 0.022027 1 2 cbr 210 ------- 6 1.0 2.0 59 59
- 0.022027 1 2 cbr 210 ------- 6 1.0 2.0 59 59
r 0.022035 1 2 cbr 210 ------- 6 1.0 2.0 5 5
+ 0.0224 1 2 cbr 210 ------- 6 1.0 2.0 60 60
- 0.0224 1 2 cbr 210 ------- 6 1.0 2.0 60 60
r 0.022408 1 2 cbr 210 ------- 6 1.0 2.0 6 6
+ 0.022773 1 2 cbr 210 ------- 6 1.0 2.0 61 61
- 0.022773 1 2 cbr 210 ------- 6 1.0 2.0 61 61
r 0.022781 1 2 cbr 210 ------- 6 1.0 2.0 7 7
+ 0.023147 1 2 cbr 210 ------- 6 1.0 2.0 62 62
- 0.023147 1 2 cbr 210 ------- 6 1.0 2.0 62 62
r 0.023155 1 2 cbr 210 ------- 6 1.0 2.0 8 8
+ 0.02352 1 2 cbr 210 ------- 6 1.0 2.0 63 63
- 0.02352 1 2 cbr 210 ------- 6 1.0 2.0 63 63
r 0.023528 1 2 cbr 210 ------- 6 1.0 2.0 9 9
+ 0.023893 1 2 cbr 210 ------- 6 1.0 2.0 64 64
- 0.023893 1 2 cbr 210 ------- 6 1.0 2.0 64 64
r 0.023901 1 2 cbr 210 ------- 6 1.0 2.0 10 10
+ 0.024267 1 2 cbr 210 ------- 6 1.0 2.0 65 65
- 0.024267 1 2 cbr 210 ------- 6 1.0 2.0 65 65
r 0.024275 1 2 cbr 210 ------- 6 1.0 2.0 11 11
+ 0.02464 1 2 cbr 210 ------- 6 1.0 2.0 66 66
- 0.02464 1 2 cbr 210 ------- 6 1.0 2.0 66 66
r 0.024648 1 2 cbr 210 ------- 6 1.0 2.0 12 12
+ 0.025013 1 2 cbr 210 ------- 6 1.0 2.0 67 67
- 0.025013 1 2 cbr 210 ------- 6 1.0 2.0 67 67
r 0.025021 1 2 cbr 210 ------- 6 1.0 2.0 13 13
+ 0.025387 1 2 cbr 210 ------- 6 1.0 2.0 68 68
- 0.025387 1 2 cbr 210 ------- 6 1.0 2.0 68 68
r 0.025395 1 2 cbr 210 ------- 6 1.0 2.0 14 14
+ 0.02576 1 2 cbr 210 ------- 6 1.0 2.0 69 69
- 0.02576 1 2 cbr 210 ------- 6 1.0 2.0 69 69
r 0.025768 1 2 cbr 210 ------- 6 1.0 2.0 15 15
+ 0.026133 1 2 cbr 210 ------- 6 1.0 2.0 70 70
- 0.026133 1 2 cbr 210 ------- 6 1.0 2.0 70 70
r 0.026141 1 2 cbr 210 ------- 6 1.0 2.0 16 16
+ 0.026507 1 2 cbr 210 ------- 6 1.0 2.0 71 71
- 0.026507 1 2 cbr 210 ------- 6 1.0 2.0 71 71
r 0.026515 1 2 cbr 210 ------- 6 1.0 2.0 17 17
+ 0.02688 1 2 cbr 210 ------- 6 1.0 2.0 72 72
- 0.02688 1 2 cbr 210 ------- 6 1.0 2.0 72 72
r 0.026888 1 2 cbr 210 ------- 6 1.0 2.0 18 18
+ 0.027253 1 2 cbr 210 ------- 6 1.0 2.0 73 73
- 0.027253 1 2 cbr 210 ------- 6 1.0 2.0 73 73
r 0.027261 1 2 cbr 210 ------- 6 1.0 2.0 19 19
+ 0.027627 1 2 cbr 210 ------- 6 1.0 2.0 74 74
- 0.027627 1 2 cbr 210 ------- 6 1.0 2.0 74 74
r 0.027635 1 2 cbr 210 ------- 6 1.0 2.0 20 20
+ 0.028 1 2 cbr 210 ------- 6 1.0 2.0 75 75
- 0.028 1 2 cbr 210 ------- 6 1.0 2.0 75 75
r 0.028008 1 2 cbr 210 ------- 6 1.0 2.0 21 21
+ 0.028373 1 2 cbr 210 ------- 6 1.0 2.0 76 76
- 0.028373 1 2 cbr 210 ------- 6 1.0 2.0 76 76
r 0.028381 1 2 cbr 210 ------- 6 1.0 2.0 22 22
+ 0.028747 1 2 cbr 210 ------- 6 1.0 2.0 77 77
- 0.028747 1 2 cbr 210 ------- 6 1.0 2.0 77 77
r 0.028755 1 2 cbr 210 ------- 6 1.0 2.0 23 23
+ 0.02912 1 2 cbr 210 ------- 6 1.0 2.0 78 78
- 0.02912 1 2 cbr 210 ------- 6 1.0 2.0 78 78
r 0.029128 1 2 cbr 210 ------- 6 1.0 2.0 24 24
+ 0.029493 1 2 cbr 210 ------- 6 1.0 2.0 79 79
- 0.029493 1 2 cbr 210 ------- 6 1.0 2.0 79 79
r 0.029501 1 2 cbr 210 ------- 6 1.0 2.0 25 25
+ 0.029867 1 2 cbr 210 ------- 6 1.0 2.0 80 80
- 0.029867 1 2 cbr 210 ------- 6 1.0 2.0 80 80
r 0.029875 1 2 cbr 210 ------- 6 1.0 2.0 26 26
+ 0.03024 1 2 cbr 210 ------- 6 1.0 2.0 81 81
- 0.03024 1 2 cbr 210 ------- 6 1.0 2.0 81 81
r 0.030248 1 2 cbr 210 ------- 6 1.0 2.0 27 27
+ 0.030613 1 2 cbr 210 ------- 6 1.0 2.0 82 82
- 0.030613 1 2 cbr 210 ------- 6 1.0 2.0 82 82
r 0.030621 1 2 cbr 210 ------- 6 1.0 2.0 28 28
+ 0.030987 1 2 cbr 210 ------- 6 1.0 2.0 83 83
- 0.030987 1 2 cbr 210 ------- 6 1.0 2.0 83 83
r 0.030995 1 2 cbr 210 ------- 6 1.0 2.0 29 29
+ 0.03136 1 2 cbr 210 ------- 6 1.0 2.0 84 84
- 0.03136 1 2 cbr 210 ------- 6 1.0 2.0 84 84
r 0.031368 1 2 cbr 210 ------- 6 1.0 2.0 30 30
+ 0.031733 1 2 cbr 210 ------- 6 1.0 2.0 85 85
- 0.031733 1 2 cbr 210 ------- 6 1.0 2.0 85 85
r 0.031741 1 2 cbr 210 ------- 6 1.0 2.0 31 31
+ 0.032107 1 2 cbr 210 ------- 6 1.0 2.0 86 86
- 0.032107 1 2 cbr 210 ------- 6 1.0 2.0 86 86
r 0.032115 1 2 cbr 210 ------- 6 1.0 2.0 32 32
+ 0.03248 1 2 cbr 210 ------- 6 1.0 2.0 87 87
- 0.03248 1 2 cbr 210 ------- 6 1.0 2.0 87 87
r 0.032488 1 2 cbr 210 ------- 6 1.0 2.0 33 33
+ 0.032853 1 2 cbr 210 ------- 6 1.0 2.0 88 88
- 0.032853 1 2 cbr 210 ------- 6 1.0 2.0 88 88
r 0.032861 1 2 cbr 210 ------- 6 1.0 2.0 34 34
+ 0.033227 1 2 cbr 210 ------- 6 1.0 2.0 89 89
- 0.033227 1 2 cbr 210 ------- 6 1.0 2.0 89 89
r 0.033235 1 2 cbr 210 ------- 6 1.0 2.0 35 35
+ 0.0336 1 2 cbr 210 ------- 6 1.0 2.0 90 90
- 0.0336 1 2 cbr 210 ------- 6 1.0 2.0 90 90
r 0.033608 1 2 cbr 210 ------- 6 1.0 2.0 36 36
+ 0.033973 1 2 cbr 210 ------- 6 1.0 2.0 91 91
- 0.033973 1 2 cbr 210 ------- 6 1.0 2.0 91 91
r 0.033981 1 2 cbr 210 ------- 6 1.0 2.0 37 37
+ 0.034347 1 2 cbr 210 ------- 6 1.0 2.0 92 92
- 0.034347 1 2 cbr 210 ------- 6 1.0 2.0 92 92
r 0.034355 1 2 cbr 210 ------- 6 1.0 2.0 38 38
+ 0.03472 1 2 cbr 210 ------- 6 1.0 2.0 93 93
- 0.03472 1 2 cbr 210 ------- 6 1.0 2.0 93 93
r 0.034728 1 2 cbr 210 ------- 6 1.0 2.0 39 39
+ 0.035093 1 2 cbr 210 ------- 6 1.0 2.0 94 94
- 0.035093 1 2 cbr 210 ------- 6 1.0 2.0 94 94
r 0.035101 1 2 cbr 210 ------- 6 1.0 2.0 40 40
+ 0.035467 1 2 cbr 210 ------- 6 1.0 2.0 95 95
- 0.035467 1 2 cbr 210 ------- 6 1.0 2.0 95 95
r 0.035475 1 2 cbr 210 ------- 6 1.0 2.0 41 41
+ 0.03584 1 2 cbr 210 ------- 6 1.0 2.0 96 96
- 0.03584 1 2 cbr 210 ------- 6 1.0 2.0 96 96
r 0.035848 1 2 cbr 210 ------- 6 1.0 2.0 42 42
+ 0.036213 1 2 cbr 210 ------- 6 1.0 2.0 97 97
- 0.036213 1 2 cbr 210 ------- 6 1.0 2.0 97 97
r 0.036221 1 2 cbr 210 ------- 6 1.0 2.0 43 43
+ 0.036587 1 2 cbr 210 ------- 6 1.0 2.0 98 98
- 0.036587 1 2 cbr 210 ------- 6 1.0 2.0 98 98
r 0.036595 1 2 cbr 210 ------- 6 1.0 2.0 44 44
+ 0.03696 1 2 cbr 210 ------- 6 1.0 2.0 99 99
- 0.03696 1 2 cbr 210 ------- 6 1.0 2.0 99 99
r 0.036968 1 2 cbr 210 ------- 6 1.0 2.0 45 45
+ 0.037333 1 2 cbr 210 ------- 6 1.0 2.0 100 100
- 0.037333 1 2 cbr 210 ------- 6 1.0 2.0 100 100
r 0.037341 1 2 cbr 210 ------- 6 1.0 2.0 46 46
+ 0.037707 1 2 cbr 210 ------- 6 1.0 2.0 101 101
- 0.037707 1 2 cbr 210 ------- 6 1.0 2.0 101 101
r 0.037715 1 2 cbr 210 ------- 6 1.0 2.0 47 47
+ 0.03808 1 2 cbr 210 ------- 6 1.0 2.0 102 102
- 0.03808 1 2 cbr 210 ------- 6 1.0 2.0 102 102
r 0.038088 1 2 cbr 210 ------- 6 1.0 2.0 48 48
+ 0.038453 1 2 cbr 210 ------- 6 1.0 2.0 103 103
- 0.038453 1 2 cbr 210 ------- 6 1.0 2.0 103 103
r 0.038461 1 2 cbr 210 ------- 6 1.0 2.0 49 49
+ 0.038827 1 2 cbr 210 ------- 6 1.0 2.0 104 104
- 0.038827 1 2 cbr 210 ------- 6 1.0 2.0 104 104
r 0.038835 1 2 cbr 210 ------- 6 1.0 2.0 50 50
+ 0.0392 1 2 cbr 210 ------- 6 1.0 2.0 105 105
- 0.0392 1 2 cbr 210 ------- 6 1.0 2.0 105 105
r 0.039208 1 2 cbr 210 ------- 6 1.0 2.0 51 51
+ 0.039573 1 2 cbr 210 ------- 6 1.0 2.0 106 106
- 0.039573 1 2 cbr 210 ------- 6 1.0 2.0 106 106
r 0.039581 1 2 cbr 210 ------- 6 1.0 2.0 52 52
+ 0.039947 1 2 cbr 210 ------- 6 1.0 2.0 107 107
- 0.039947 1 2 cbr 210 ------- 6 1.0 2.0 107 107
r 0.039955 1 2 cbr 210 ------- 6 1.0 2.0 53 53
+ 0.04032 1 2 cbr 210 ------- 6 1.0 2.0 108 108
- 0.04032 1 2 cbr 210 ------- 6 1.0 2.0 108 108
r 0.040328 1 2 cbr 210 ------- 6 1.0 2.0 54 54
+ 0.040693 1 2 cbr 210 ------- 6 1.0 2.0 109 109
- 0.040693 1 2 cbr 210 ------- 6 1.0 2.0 109 109
r 0.040701 1 2 cbr 210 ------- 6 1.0 2.0 55 55
+ 0.041067 1 2 cbr 210 ------- 6 1.0 2.0 110 110
- 0.041067 1 2 cbr 210 ------- 6 1.0 2.0 110 110
r 0.041075 1 2 cbr 210 ------- 6 1.0 2.0 56 56
+ 0.04144 1 2 cbr 210 ------- 6 1.0 2.0 111 111
- 0.04144 1 2 cbr 210 ------- 6 1.0 2.0 111 111
r 0.041448 1 2 cbr 210 ------- 6 1.0 2.0 57 57
+ 0.041813 1 2 cbr 210 ------- 6 1.0 2.0 112 112
- 0.041813 1 2 cbr 210 ------- 6 1.0 2.0 112 112
r 0.041821 1 2 cbr 210 ------- 6 1.0 2.0 58 58
+ 0.042187 1 2 cbr 210 ------- 6 1.0 2.0 113 113
- 0.042187 1 2 cbr 210 ------- 6 1.0 2.0 113 113
r 0.042195 1 2 cbr 210 ------- 6 1.0 2.0 59 59
+ 0.04256 1 2 cbr 210 ------- 6 1.0 2.0 114 114
- 0.04256 1 2 cbr 210 ------- 6 1.0 2.0 114 114
r 0.042568 1 2 cbr 210 ------- 6 1.0 2.0 60 60
+ 0.042933 1 2 cbr 210 ------- 6 1.0 2.0 115 115
- 0.042933 1 2 cbr 210 ------- 6 1.0 2.0 115 115
r 0.042941 1 2 cbr 210 ------- 6 1.0 2.0 61 61
+ 0.043307 1 2 cbr 210 ------- 6 1.0 2.0 116 116
- 0.043307 1 2 cbr 210 ------- 6 1.0 2.0 116 116
r 0.043315 1 2 cbr 210 ------- 6 1.0 2.0 62 62
+ 0.04368 1 2 cbr 210 ------- 6 1.0 2.0 117 117
- 0.04368 1 2 cbr 210 ------- 6 1.0 2.0 117 117
r 0.043688 1 2 cbr 210 ------- 6 1.0 2.0 63 63
+ 0.044053 1 2 cbr 210 ------- 6 1.0 2.0 118 118
- 0.044053 1 2 cbr 210 ------- 6 1.0 2.0 118 118
r 0.044061 1 2 cbr 210 ------- 6 1.0 2.0 64 64
+ 0.044427 1 2 cbr 210 ------- 6 1.0 2.0 119 119
- 0.044427 1 2 cbr 210 ------- 6 1.0 2.0 119 119
r 0.044435 1 2 cbr 210 ------- 6 1.0 2.0 65 65
+ 0.0448 1 2 cbr 210 ------- 6 1.0 2.0 120 120
- 0.0448 1 2 cbr 210 ------- 6 1.0 2.0 120 120
r 0.044808 1 2 cbr 210 ------- 6 1.0 2.0 66 66
+ 0.045173 1 2 cbr 210 ------- 6 1.0 2.0 121 121
- 0.045173 1 2 cbr 210 ------- 6 1.0 2.0 121 121
r 0.045181 1 2 cbr 210 ------- 6 1.0 2.0 67 67
+ 0.045547 1 2 cbr 210 ------- 6 1.0 2.0 122 122
- 0.045547 1 2 cbr 210 ------- 6 1.0 2.0 122 122
r 0.045555 1 2 cbr 210 ------- 6 1.0 2.0 68 68
+ 0.04592 1 2 cbr 210 ------- 6 1.0 2.0 123 123
- 0.04592 1 2 cbr 210 ------- 6 1.0 2.0 123 123
r 0.045928 1 2 cbr 210 ------- 6 1.0 2.0 69 69
+ 0.046293 1 2 cbr 210 ------- 6 1.0 2.0 124 124
- 0.046293 1 2 cbr 210 ------- 6 1.0 2.0 124 124
r 0.046301 1 2 cbr 210 ------- 6 1.0 2.0 70 70
+ 0.046667 1 2 cbr 210 ------- 6 1.0 2.0 125 125
- 0.046667 1 2 cbr 210 ------- 6 1.0 2.0 125 125
r 0.046675 1 2 cbr 210 ------- 6 1.0 2.0 71 71
+ 0.04704 1 2 cbr 210 ------- 6 1.0 2.0 126 126
- 0.04704 1 2 cbr 210 ------- 6 1.0 2.0 126 126
r 0.047048 1 2 cbr 210 ------- 6 1.0 2.0 72 72
+ 0.047413 1 2 cbr 210 ------- 6 1.0 2.0 127 127
- 0.047413 1 2 cbr 210 ------- 6 1.0 2.0 127 127
r 0.047421 1 2 cbr 210 ------- 6 1.0 2.0 73 73
+ 0.047787 1 2 cbr 210 ------- 6 1.0 2.0 128 128
- 0.047787 1 2 cbr 210 ------- 6 1.0 2.0 128 128
r 0.047795 1 2 cbr 210 ------- 6 1.0 2.0 74 74
+ 0.04816 1 2 cbr 210 ------- 6 1.0 2.0 129 129
- 0.04816 1 2 cbr 210 ------- 6 1.0 2.0 129 129
r 0.048168 1 2 cbr 210 ------- 6 1.0 2.0 75 75
+ 0.048533 1 2 cbr 210 ------- 6 1.0 2.0 130 130
- 0.048533 1 2 cbr 210 ------- 6 1.0 2.0 130 130
r 0.048541 1 2 cbr 210 ------- 6 1.0 2.0 76 76
+ 0.048907 1 2 cbr 210 ------- 6 1.0 2.0 131 131
- 0.048907 1 2 cbr 210 ------- 6 1.0 2.0 131 131
r 0.048915 1 2 cbr 210 ------- 6 1.0 2.0 77 77
+ 0.04928 1 2 cbr 210 ------- 6 1.0 2.0 132 132
- 0.04928 1 2 cbr 210 ------- 6 1.0 2.0 132 132
r 0.049288 1 2 cbr 210 ------- 6 1.0 2.0 78 78
+ 0.049653 1 2 cbr 210 ------- 6 1.0 2.0 133 133
- 0.049653 1 2 cbr 210 ------- 6 1.0 2.0 133 133
r 0.049661 1 2 cbr 210 ------- 6 1.0 2.0 79 79
+ 0.050027 1 2 cbr 210 ------- 6 1.0 2.0 134 134
- 0.050027 1 2 cbr 210 ------- 6 1.0 2.0 134 134
r 0.050035 1 2 cbr 210 ------- 6 1.0 2.0 80 80
+ 0.0504 1 2 cbr 210 ------- 6 1.0 2.0 135 135
- 0.0504 1 2 cbr 210 ------- 6 1.0 2.0 135 135
r 0.050408 1 2 cbr 210 ------- 6 1.0 2.0 81 81
+ 0.050773 1 2 cbr 210 ------- 6 1.0 2.0 136 136
- 0.050773 1 2 cbr 210 ------- 6 1.0 2.0 136 136
r 0.050781 1 2 cbr 210 ------- 6 1.0 2.0 82 82
+ 0.051147 1 2 cbr 210 ------- 6 1.0 2.0 137 137
- 0.051147 1 2 cbr 210 ------- 6 1.0 2.0 137 137
r 0.051155 1 2 cbr 210 ------- 6 1.0 2.0 83 83
+ 0.05152 1 2 cbr 210 ------- 6 1.0 2.0 138 138
- 0.05152 1 2 cbr 210 ------- 6 1.0 2.0 138 138
r 0.051528 1 2 cbr 210 ------- 6 1.0 2.0 84 84
+ 0.051893 1 2 cbr 210 ------- 6 1.0 2.0 139 139
- 0.051893 1 2 cbr 210 ------- 6 1.0 2.0 139 139
r 0.051901 1 2 cbr 210 ------- 6 1.0 2.0 85 85
+ 0.052267 1 2 cbr 210 ------- 6 1.0 2.0 140 140
- 0.052267 1 2 cbr 210 ------- 6 1.0 2.0 140 140
r 0.052275 1 2 cbr 210 ------- 6 1.0 2.0 86 86
+ 0.05264 1 2 cbr 210 ------- 6 1.0 2.0 141 141
- 0.05264 1 2 cbr 210 ------- 6 1.0 2.0 141 141
r 0.052648 1 2 cbr 210 ------- 6 1.0 2.0 87 87
+ 0.053013 1 2 cbr 210 ------- 6 1.0 2.0 142 142
- 0.053013 1 2 cbr 210 ------- 6 1.0 2.0 142 142
r 0.053021 1 2 cbr 210 ------- 6 1.0 2.0 88 88
+ 0.053387 1 2 cbr 210 ------- 6 1.0 2.0 143 143
- 0.053387 1 2 cbr 210 ------- 6 1.0 2.0 143 143
r 0.053395 1 2 cbr 210 ------- 6 1.0 2.0 89 89
+ 0.05376 1 2 cbr 210 ------- 6 1.0 2.0 144 144
- 0.05376 1 2 cbr 210 ------- 6 1.0 2.0 144 144
r 0.053768 1 2 cbr 210 ------- 6 1.0 2.0 90 90
+ 0.054133 1 2 cbr 210 ------- 6 1.0 2.0 145 145
- 0.054133 1 2 cbr 210 ------- 6 1.0 2.0 145 145
r 0.054141 1 2 cbr 210 ------- 6 1.0 2.0 91 91
+ 0.054507 1 2 cbr 210 ------- 6 1.0 2.0 146 146
- 0.054507 1 2 cbr 210 ------- 6 1.0 2.0 146 146
r 0.054515 1 2 cbr 210 ------- 6 1.0 2.0 92 92
+ 0.05488 1 2 cbr 210 ------- 6 1.0 2.0 147 147
- 0.05488 1 2 cbr 210 ------- 6 1.0 2.0 147 147
r 0.054888 1 2 cbr 210 ------- 6 1.0 2.0 93 93
+ 0.055253 1 2 cbr 210 ------- 6 1.0 2.0 148 148
- 0.055253 1 2 cbr 210 ------- 6 1.0 2.0 148 148
r 0.055261 1 2 cbr 210 ------- 6 1.0 2.0 94 94
+ 0.055627 1 2 cbr 210 ------- 6 1.0 2.0 149 149
- 0.055627 1 2 cbr 210 ------- 6 1.0 2.0 149 149
r 0.055635 1 2 cbr 210 ------- 6 1.0 2.0 95 95
+ 0.056 1 2 cbr 210 ------- 6 1.0 2.0 150 150
- 0.056 1 2 cbr 210 ------- 6 1.0 2.0 150 150
r 0.056008 1 2 cbr 210 ------- 6 1.0 2.0 96 96
+ 0.056373 1 2 cbr 210 ------- 6 1.0 2.0 151 151
- 0.056373 1 2 cbr 210 ------- 6 1.0 2.0 151 151
r 0.056381 1 2 cbr 210 ------- 6 1.0 2.0 97 97
+ 0.056747 1 2 cbr 210 ------- 6 1.0 2.0 152 152
- 0.056747 1 2 cbr 210 ------- 6 1.0 2.0 152 152
r 0.056755 1 2 cbr 210 ------- 6 1.0 2.0 98 98
+ 0.05712 1 2 cbr 210 ------- 6 1.0 2.0 153 153
- 0.05712 1 2 cbr 210 ------- 6 1.0 2.0 153 153
r 0.057128 1 2 cbr 210 ------- 6 1.0 2.0 99 99
+ 0.057493 1 2 cbr 210 ------- 6 1.0 2.0 154 154
- 0.057493 1 2 cbr 210 ------- 6 1.0 2.0 154 154
r 0.057501 1 2 cbr 210 ------- 6 1.0 2.0 100 100
+ 0.057867 1 2 cbr 210 ------- 6 1.0 2.0 155 155
- 0.057867 1 2 cbr 210 ------- 6 1.0 2.0 155 155
r 0.057875 1 2 cbr 210 ------- 6 1.0 2.0 101 101
+ 0.05824 1 2 cbr 210 ------- 6 1.0 2.0 156 156
- 0.05824 1 2 cbr 210 ------- 6 1.0 2.0 156 156
r 0.058248 1 2 cbr 210 ------- 6 1.0 2.0 102 102
+ 0.058613 1 2 cbr 210 ------- 6 1.0 2.0 157 157
- 0.058613 1 2 cbr 210 ------- 6 1.0 2.0 157 157
r 0.058621 1 2 cbr 210 ------- 6 1.0 2.0 103 103
+ 0.058987 1 2 cbr 210 ------- 6 1.0 2.0 158 158
- 0.058987 1 2 cbr 210 ------- 6 1.0 2.0 158 158
r 0.058995 1 2 cbr 210 ------- 6 1.0 2.0 104 104
+ 0.05936 1 2 cbr 210 ------- 6 1.0 2.0 159 159
- 0.05936 1 2 cbr 210 ------- 6 1.0 2.0 159 159
r 0.059368 1 2 cbr 210 ------- 6 1.0 2.0 105 105
+ 0.059733 1 2 cbr 210 ------- 6 1.0 2.0 160 160
- 0.059733 1 2 cbr 210 ------- 6 1.0 2.0 160 160
r 0.059741 1 2 cbr 210 ------- 6 1.0 2.0 106 106
+ 0.060107 1 2 cbr 210 ------- 6 1.0 2.0 161 161
- 0.060107 1 2 cbr 210 ------- 6 1.0 2.0 161 161
r 0.060115 1 2 cbr 210 ------- 6 1.0 2.0 107 107
+ 0.06048 1 2 cbr 210 ------- 6 1.0 2.0 162 162
- 0.06048 1 2 cbr 210 ------- 6 1.0 2.0 162 162
r 0.060488 1 2 cbr 210 ------- 6 1.0 2.0 108 108
+ 0.060853 1 2 cbr 210 ------- 6 1.0 2.0 163 163
- 0.060853 1 2 cbr 210 ------- 6 1.0 2.0 163 163
r 0.060861 1 2 cbr 210 ------- 6 1.0 2.0 109 109
+ 0.061227 1 2 cbr 210 ------- 6 1.0 2.0 164 164
- 0.061227 1 2 cbr 210 ------- 6 1.0 2.0 164 164
r 0.061235 1 2 cbr 210 ------- 6 1.0 2.0 110 110
+ 0.0616 1 2 cbr 210 ------- 6 1.0 2.0 165 165
- 0.0616 1 2 cbr 210 ------- 6 1.0 2.0 165 165
r 0.061608 1 2 cbr 210 ------- 6 1.0 2.0 111 111
+ 0.061973 1 2 cbr 210 ------- 6 1.0 2.0 166 166
- 0.061973 1 2 cbr 210 ------- 6 1.0 2.0 166 166
r 0.061981 1 2 cbr 210 ------- 6 1.0 2.0 112 112
+ 0.062347 1 2 cbr 210 ------- 6 1.0 2.0 167 167
- 0.062347 1 2 cbr 210 ------- 6 1.0 2.0 167 167
r 0.062355 1 2 cbr 210 ------- 6 1.0 2.0 113 113
+ 0.06272 1 2 cbr 210 ------- 6 1.0 2.0 168 168
- 0.06272 1 2 cbr 210 ------- 6 1.0 2.0 168 168
r 0.062728 1 2 cbr 210 ------- 6 1.0 2.0 114 114
+ 0.063093 1 2 cbr 210 ------- 6 1.0 2.0 169 169
- 0.063093 1 2 cbr 210 ------- 6 1.0 2.0 169 169
r 0.063101 1 2 cbr 210 ------- 6 1.0 2.0 115 115
+ 0.063467 1 2 cbr 210 ------- 6 1.0 2.0 170 170
- 0.063467 1 2 cbr 210 ------- 6 1.0 2.0 170 170
r 0.063475 1 2 cbr 210 ------- 6 1.0 2.0 116 116
+ 0.06384 1 2 cbr 210 ------- 6 1.0 2.0 171 171
- 0.06384 1 2 cbr 210 ------- 6 1.0 2.0 171 171
r 0.063848 1 2 cbr 210 ------- 6 1.0 2.0 117 117
+ 0.064213 1 2 cbr 210 ------- 6 1.0 2.0 172 172
- 0.064213 1 2 cbr 210 ------- 6 1.0 2.0 172 172
r 0.064221 1 2 cbr 210 ------- 6 1.0 2.0 118 118
+ 0.064587 1 2 cbr 210 ------- 6 1.0 2.0 173 173
- 0.064587 1 2 cbr 210 ------- 6 1.0 2.0 173 173
r 0.064595 1 2 cbr 210 ------- 6 1.0 2.0 119 119
+ 0.06496 1 2 cbr 210 ------- 6 1.0 2.0 174 174
- 0.06496 1 2 cbr 210 ------- 6 1.0 2.0 174 174
r 0.064968 1 2 cbr 210 ------- 6 1.0 2.0 120 120
+ 0.065333 1 2 cbr 210 ------- 6 1.0 2.0 175 175
- 0.065333 1 2 cbr 210 ------- 6 1.0 2.0 175 175
r 0.065341 1 2 cbr 210 ------- 6 1.0 2.0 121 121
+ 0.065707 1 2 cbr 210 ------- 6 1.0 2.0 176 176
- 0.065707 1 2 cbr 210 ------- 6 1.0 2.0 176 176
r 0.065715 1 2 cbr 210 ------- 6 1.0 2.0 122 122
+ 0.06608 1 2 cbr 210 ------- 6 1.0 2.0 177 177
- 0.06608 1 2 cbr 210 ------- 6 1.0 2.0 177 177
r 0.066088 1 2 cbr 210 ------- 6 1.0 2.0 123 123
+ 0.066453 1 2 cbr 210 ------- 6 1.0 2.0 178 178
- 0.066453 1 2 cbr 210 ------- 6 1.0 2.0 178 178
r 0.066461 1 2 cbr 210 ------- 6 1.0 2.0 124 124
+ 0.066827 1 2 cbr 210 ------- 6 1.0 2.0 179 179
- 0.066827 1 2 cbr 210 ------- 6 1.0 2.0 179 179
r 0.066835 1 2 cbr 210 ------- 6 1.0 2.0 125 125
+ 0.0672 1 2 cbr 210 ------- 6 1.0 2.0 180 180
- 0.0672 1 2 cbr 210 ------- 6 1.0 2.0 180 180
r 0.067208 1 2 cbr 210 ------- 6 1.0 2.0 126 126
+ 0.067573 1 2 cbr 210 ------- 6 1.0 2.0 181 181
- 0.067573 1 2 cbr 210 ------- 6 1.0 2.0 181 181
r 0.067581 1 2 cbr 210 ------- 6 1.0 2.0 127 127
+ 0.067947 1 2 cbr 210 ------- 6 1.0 2.0 182 182
- 0.067947 1 2 cbr 210 ------- 6 1.0 2.0 182 182
r 0.067955 1 2 cbr 210 ------- 6 1.0 2.0 128 128
+ 0.06832 1 2 cbr 210 ------- 6 1.0 2.0 183 183
- 0.06832 1 2 cbr 210 ------- 6 1.0 2.0 183 183
r 0.068328 1 2 cbr 210 ------- 6 1.0 2.0 129 129
+ 0.068693 1 2 cbr 210 ------- 6 1.0 2.0 184 184
- 0.068693 1 2 cbr 210 ------- 6 1.0 2.0 184 184
r 0.068701 1 2 cbr 210 ------- 6 1.0 2.0 130 130
+ 0.069067 1 2 cbr 210 ------- 6 1.0 2.0 185 185
- 0.069067 1 2 cbr 210 ------- 6 1.0 2.0 185 185
r 0.069075 1 2 cbr 210 ------- 6 1.0 2.0 131 131
+ 0.06944 1 2 cbr 210 ------- 6 1.0 2.0 186 186
- 0.06944 1 2 cbr 210 ------- 6 1.0 2.0 186 186
r 0.069448 1 2 cbr 210 ------- 6 1.0 2.0 132 132
+ 0.069813 1 2 cbr 210 ------- 6 1.0 2.0 187 187
- 0.069813 1 2 cbr 210 ------- 6 1.0 2.0 187 187
r 0.069821 1 2 cbr 210 ------- 6 1.0 2.0 133 133
+ 0.070187 1 2 cbr 210 ------- 6 1.0 2.0 188 188
- 0.070187 1 2 cbr 210 ------- 6 1.0 2.0 188 188
r 0.070195 1 2 cbr 210 ------- 6 1.0 2.0 134 134
+ 0.07056 1 2 cbr 210 ------- 6 1.0 2.0 189 189
- 0.07056 1 2 cbr 210 ------- 6 1.0 2.0 189 189
r 0.070568 1 2 cbr 210 ------- 6 1.0 2.0 135 135
+ 0.070933 1 2 cbr 210 ------- 6 1.0 2.0 190 190
- 0.070933 1 2 cbr 210 ------- 6 1.0 2.0 190 190
r 0.070941 1 2 cbr 210 ------- 6 1.0 2.0 136 136
+ 0.071307 1 2 cbr 210 ------- 6 1.0 2.0 191 191
- 0.071307 1 2 cbr 210 ------- 6 1.0 2.0 191 191
r 0.071315 1 2 cbr 210 ------- 6 1.0 2.0 137 137
+ 0.07168 1 2 cbr 210 ------- 6 1.0 2.0 192 192
- 0.07168 1 2 cbr 210 ------- 6 1.0 2.0 192 192
r 0.071688 1 2 cbr 210 ------- 6 1.0 2.0 138 138
+ 0.072053 1 2 cbr 210 ------- 6 1.0 2.0 193 193
- 0.072053 1 2 cbr 210 ------- 6 1.0 2.0 193 193
r 0.072061 1 2 cbr 210 ------- 6 1.0 2.0 139 139
+ 0.072427 1 2 cbr 210 ------- 6 1.0 2.0 194 194
- 0.072427 1 2 cbr 210 ------- 6 1.0 2.0 194 194
r 0.072435 1 2 cbr 210 ------- 6 1.0 2.0 140 140
+ 0.0728 1 2 cbr 210 ------- 6 1.0 2.0 195 195
- 0.0728 1 2 cbr 210 ------- 6 1.0 2.0 195 195
r 0.072808 1 2 cbr 210 ------- 6 1.0 2.0 141 141
+ 0.073173 1 2 cbr 210 ------- 6 1.0 2.0 196 196
- 0.073173 1 2 cbr 210 ------- 6 1.0 2.0 196 196
r 0.073181 1 2 cbr 210 ------- 6 1.0 2.0 142 142
+ 0.073547 1 2 cbr 210 ------- 6 1.0 2.0 197 197
- 0.073547 1 2 cbr 210 ------- 6 1.0 2.0 197 197
r 0.073555 1 2 cbr 210 ------- 6 1.0 2.0 143 143
+ 0.07392 1 2 cbr 210 ------- 6 1.0 2.0 198 198
- 0.07392 1 2 cbr 210 ------- 6 1.0 2.0 198 198
r 0.073928 1 2 cbr 210 ------- 6 1.0 2.0 144 144
+ 0.074293 1 2 cbr 210 ------- 6 1.0 2.0 199 199
- 0.074293 1 2 cbr 210 ------- 6 1.0 2.0 199 199
r 0.074301 1 2 cbr 210 ------- 6 1.0 2.0 145 145
+ 0.074667 1 2 cbr 210 ------- 6 1.0 2.0 200 200
- 0.074667 1 2 cbr 210 ------- 6 1.0 2.0 200 200
r 0.074675 1 2 cbr 210 ------- 6 1.0 2.0 146 146
+ 0.07504 1 2 cbr 210 ------- 6 1.0 2.0 201 201
- 0.07504 1 2 cbr 210 ------- 6 1.0 2.0 201 201
r 0.075048 1 2 cbr 210 ------- 6 1.0 2.0 147 147
+ 0.075413 1 2 cbr 210 ------- 6 1.0 2.0 202 202
- 0.075413 1 2 cbr 210 ------- 6 1.0 2.0 202 202
r 0.075421 1 2 cbr 210 ------- 6 1.0 2.0 148 148
+ 0.075787 1 2 cbr 210 ------- 6 1.0 2.0 203 203
- 0.075787 1 2 cbr 210 ------- 6 1.0 2.0 203 203
r 0.075795 1 2 cbr 210 ------- 6 1.0 2.0 149 149
+ 0.07616 1 2 cbr 210 ------- 6 1.0 2.0 204 204
- 0.07616 1 2 cbr 210 ------- 6 1.0 2.0 204 204
r 0.076168 1 2 cbr 210 ------- 6 1.0 2.0 150 150
+ 0.076533 1 2 cbr 210 ------- 6 1.0 2.0 205 205
- 0.076533 1 2 cbr 210 ------- 6 1.0 2.0 205 205
r 0.076541 1 2 cbr 210 ------- 6 1.0 2.0 151 151
+ 0.076907 1 2 cbr 210 ------- 6 1.0 2.0 206 206
- 0.076907 1 2 cbr 210 ------- 6 1.0 2.0 206 206
r 0.076915 1 2 cbr 210 ------- 6 1.0 2.0 152 152
+ 0.07728 1 2 cbr 210 ------- 6 1.0 2.0 207 207
- 0.07728 1 2 cbr 210 ------- 6 1.0 2.0 207 207
r 0.077288 1 2 cbr 210 ------- 6 1.0 2.0 153 153
+ 0.077653 1 2 cbr 210 ------- 6 1.0 2.0 208 208
- 0.077653 1 2 cbr 210 ------- 6 1.0 2.0 208 208
r 0.077661 1 2 cbr 210 ------- 6 1.0 2.0 154 154
+ 0.078027 1 2 cbr 210 ------- 6 1.0 2.0 209 209
- 0.078027 1 2 cbr 210 ------- 6 1.0 2.0 209 209
r 0.078035 1 2 cbr 210 ------- 6 1.0 2.0 155 155
+ 0.0784 1 2 cbr 210 ------- 6 1.0 2.0 210 210
- 0.0784 1 2 cbr 210 ------- 6 1.0 2.0 210 210
r 0.078408 1 2 cbr 210 ------- 6 1.0 2.0 156 156
+ 0.078773 1 2 cbr 210 ------- 6 1.0 2.0 211 211
- 0.078773 1 2 cbr 210 ------- 6 1.0 2.0 211 211
r 0.078781 1 2 cbr 210 ------- 6 1.0 2.0 157 157
+ 0.079147 1 2 cbr 210 ------- 6 1.0 2.0 212 212
- 0.079147 1 2 cbr 210 ------- 6 1.0 2.0 212 212
r 0.079155 1 2 cbr 210 ------- 6 1.0 2.0 158 158
+ 0.07952 1 2 cbr 210 ------- 6 1.0 2.0 213 213
- 0.07952 1 2 cbr 210 ------- 6 1.0 2.0 213 213
r 0.079528 1 2 cbr 210 ------- 6 1.0 2.0 159 159
+ 0.079893 1 2 cbr 210 ------- 6 1.0 2.0 214 214
- 0.079893 1 2 cbr 210 ------- 6 1.0 2.0 214 214
r 0.079901 1 2 cbr 210 ------- 6 1.0 2.0 160 160
+ 0.080267 1 2 cbr 210 ------- 6 1.0 2.0 215 215
- 0.080267 1 2 cbr 210 ------- 6 1.0 2.0 215 215
r 0.080275 1 2 cbr 210 ------- 6 1.0 2.0 161 161
+ 0.08064 1 2 cbr 210 ------- 6 1.0 2.0 216 216
- 0.08064 1 2 cbr 210 ------- 6 1.0 2.0 216 216
r 0.080648 1 2 cbr 210 ------- 6 1.0 2.0 162 162
+ 0.081013 1 2 cbr 210 ------- 6 1.0 2.0 217 217
- 0.081013 1 2 cbr 210 ------- 6 1.0 2.0 217 217
r 0.081021 1 2 cbr 210 ------- 6 1.0 2.0 163 163
+ 0.081387 1 2 cbr 210 ------- 6 1.0 2.0 218 218
- 0.081387 1 2 cbr 210 ------- 6 1.0 2.0 218 218
r 0.081395 1 2 cbr 210 ------- 6 1.0 2.0 164 164
+ 0.08176 1 2 cbr 210 ------- 6 1.0 2.0 219 219
- 0.08176 1 2 cbr 210 ------- 6 1.0 2.0 219 219
r 0.081768 1 2 cbr 210 ------- 6 1.0 2.0 165 165
+ 0.082133 1 2 cbr 210 ------- 6 1.0 2.0 220 220
- 0.082133 1 2 cbr 210 ------- 6 1.0 2.0 220 220
r 0.082141 1 2 cbr 210 ------- 6 1.0 2.0 166 166
+ 0.082507 1 2 cbr 210 ------- 6 1.0 2.0 221 221
- 0.082507 1 2 cbr 210 ------- 6 1.0 2.0 221 221
r 0.082515 1 2 cbr 210 ------- 6 1.0 2.0 167 167
+ 0.08288 1 2 cbr 210 ------- 6 1.0 2.0 222 222
- 0.08288 1 2 cbr 210 ------- 6 1.0 2.0 222 222
r 0.082888 1 2 cbr 210 ------- 6 1.0 2.0 168 168
+ 0.083253 1 2 cbr 210 ------- 6 1.0 2.0 223 223
- 0.083253 1 2 cbr 210 ------- 6 1.0 2.0 223 223
r 0.083261 1 2 cbr 210 ------- 6 1.0 2.0 169 169
+ 0.083627 1 2 cbr 210 ------- 6 1.0 2.0 224 224
- 0.083627 1 2 cbr 210 ------- 6 1.0 2.0 224 224
r 0.083635 1 2 cbr 210 ------- 6 1.0 2.0 170 170
+ 0.084 1 2 cbr 210 ------- 6 1.0 2.0 225 225
- 0.084 1 2 cbr 210 ------- 6 1.0 2.0 225 225
r 0.084008 1 2 cbr 210 ------- 6 1.0 2.0 171 171
+ 0.084373 1 2 cbr 210 ------- 6 1.0 2.0 226 226
- 0.084373 1 2 cbr 210 ------- 6 1.0 2.0 226 226
r 0.084381 1 2 cbr 210 ------- 6 1.0 2.0 172 172
+ 0.084747 1 2 cbr 210 ------- 6 1.0 2.0 227 227
- 0.084747 1 2 cbr 210 ------- 6 1.0 2.0 227 227