+ 0 0 1 tcp 40 ------- 1 0.0 3.0 0 0
- 0 0 1 tcp 40 ------- 1 0.0 3.0 0 0
r 0.020032 0 1 tcp 40 ------- 1 0.0 3.0 0 0
+ 0.020032 1 2 tcp 40 ------- 1 0.0 3.0 0 0
- 0.020032 1 2 tcp 40 ------- 1 0.0 3.0 0 0
r 0.040245 1 2 tcp 40 ------- 1 0.0 3.0 0 0
+ 0.040245 2 3 tcp 40 ------- 1 0.0 3.0 0 0
- 0.040245 2 3 tcp 40 ------- 1 0.0 3.0 0 0
r 0.060277 2 3 tcp 40 ------- 1 0.0 3.0 0 0
+ 0.060277 3 2 ack 40 ------- 1 3.0 0.0 0 1
- 0.060277 3 2 ack 40 ------- 1 3.0 0.0 0 1
r 0.080309 3 2 ack 40 ------- 1 3.0 0.0 0 1
+ 0.080309 2 1 ack 40 ------- 1 3.0 0.0 0 1
- 0.080309 2 1 ack 40 ------- 1 3.0 0.0 0 1
r 0.100523 2 1 ack 40 ------- 1 3.0 0.0 0 1
+ 0.100523 1 0 ack 40 ------- 1 3.0 0.0 0 1
- 0.100523 1 0 ack 40 ------- 1 3.0 0.0 0 1
r 0.120555 1 0 ack 40 ------- 1 3.0 0.0 0 1
+ 0.120555 0 1 tcp 1040 ------- 1 0.0 3.0 1 2
- 0.120555 0 1 tcp 1040 ------- 1 0.0 3.0 1 2
r 0.141387 0 1 tcp 1040 ------- 1 0.0 3.0 1 2
+ 0.141387 1 2 tcp 1040 ------- 1 0.0 3.0 1 2
- 0.141387 1 2 tcp 1040 ------- 1 0.0 3.0 1 2
r 0.166933 1 2 tcp 1040 ------- 1 0.0 3.0 1 2
+ 0.166933 2 3 tcp 1040 ------- 1 0.0 3.0 1 2
- 0.166933 2 3 tcp 1040 ------- 1 0.0 3.0 1 2
r 0.187765 2 3 tcp 1040 ------- 1 0.0 3.0 1 2
+ 0.187765 3 2 ack 40 ------- 1 3.0 0.0 1 3
- 0.187765 3 2 ack 40 ------- 1 3.0 0.0 1 3
r 0.207797 3 2 ack 40 ------- 1 3.0 0.0 1 3
+ 0.207797 2 1 ack 40 ------- 1 3.0 0.0 1 3
- 0.207797 2 1 ack 40 ------- 1 3.0 0.0 1 3
r 0.228011 2 1 ack 40 ------- 1 3.0 0.0 1 3
+ 0.228011 1 0 ack 40 ------- 1 3.0 0.0 1 3
- 0.228011 1 0 ack 40 ------- 1 3.0 0.0 1 3
r 0.248043 1 0 ack 40 ------- 1 3.0 0.0 1 3
+ 0.248043 0 1 tcp 1040 ------- 1 0.0 3.0 2 4
- 0.248043 0 1 tcp 1040 ------- 1 0.0 3.0 2 4
+ 0.248043 0 1 tcp 1040 ------- 1 0.0 3.0 3 5
- 0.248875 0 1 tcp 1040 ------- 1 0.0 3.0 3 5
r 0.268875 0 1 tcp 1040 ------- 1 0.0 3.0 2 4
+ 0.268875 1 2 tcp 1040 ------- 1 0.0 3.0 2 4
- 0.268875 1 2 tcp 1040 ------- 1 0.0 3.0 2 4
r 0.269707 0 1 tcp 1040 ------- 1 0.0 3.0 3 5
+ 0.269707 1 2 tcp 1040 ------- 1 0.0 3.0 3 5
- 0.274421 1 2 tcp 1040 ------- 1 0.0 3.0 3 5
r 0.294421 1 2 tcp 1040 ------- 1 0.0 3.0 2 4
+ 0.294421 2 3 tcp 1040 ------- 1 0.0 3.0 2 4
- 0.294421 2 3 tcp 1040 ------- 1 0.0 3.0 2 4
r 0.299968 1 2 tcp 1040 ------- 1 0.0 3.0 3 5
+ 0.299968 2 3 tcp 1040 ------- 1 0.0 3.0 3 5
- 0.299968 2 3 tcp 1040 ------- 1 0.0 3.0 3 5
r 0.315253 2 3 tcp 1040 ------- 1 0.0 3.0 2 4
+ 0.315253 3 2 ack 40 ------- 1 3.0 0.0 2 6
- 0.315253 3 2 ack 40 ------- 1 3.0 0.0 2 6
r 0.3208 2 3 tcp 1040 ------- 1 0.0 3.0 3 5
+ 0.3208 3 2 ack 40 ------- 1 3.0 0.0 3 7
- 0.3208 3 2 ack 40 ------- 1 3.0 0.0 3 7
r 0.335285 3 2 ack 40 ------- 1 3.0 0.0 2 6
+ 0.335285 2 1 ack 40 ------- 1 3.0 0.0 2 6
- 0.335285 2 1 ack 40 ------- 1 3.0 0.0 2 6
r 0.340832 3 2 ack 40 ------- 1 3.0 0.0 3 7
+ 0.340832 2 1 ack 40 ------- 1 3.0 0.0 3 7
- 0.340832 2 1 ack 40 ------- 1 3.0 0.0 3 7
r 0.355499 2 1 ack 40 ------- 1 3.0 0.0 2 6
+ 0.355499 1 0 ack 40 ------- 1 3.0 0.0 2 6
- 0.355499 1 0 ack 40 ------- 1 3.0 0.0 2 6
r 0.361045 2 1 ack 40 ------- 1 3.0 0.0 3 7
+ 0.361045 1 0 ack 40 ------- 1 3.0 0.0 3 7
- 0.361045 1 0 ack 40 ------- 1 3.0 0.0 3 7
r 0.375531 1 0 ack 40 ------- 1 3.0 0.0 2 6
+ 0.375531 0 1 tcp 1040 ------- 1 0.0 3.0 4 8
- 0.375531 0 1 tcp 1040 ------- 1 0.0 3.0 4 8
+ 0.375531 0 1 tcp 1040 ------- 1 0.0 3.0 5 9
- 0.376363 0 1 tcp 1040 ------- 1 0.0 3.0 5 9
r 0.381077 1 0 ack 40 ------- 1 3.0 0.0 3 7
+ 0.381077 0 1 tcp 1040 ------- 1 0.0 3.0 6 10
- 0.381077 0 1 tcp 1040 ------- 1 0.0 3.0 6 10
+ 0.381077 0 1 tcp 1040 ------- 1 0.0 3.0 7 11
- 0.381909 0 1 tcp 1040 ------- 1 0.0 3.0 7 11
r 0.396363 0 1 tcp 1040 ------- 1 0.0 3.0 4 8
+ 0.396363 1 2 tcp 1040 ------- 1 0.0 3.0 4 8
- 0.396363 1 2 tcp 1040 ------- 1 0.0 3.0 4 8
r 0.397195 0 1 tcp 1040 ------- 1 0.0 3.0 5 9
+ 0.397195 1 2 tcp 1040 ------- 1 0.0 3.0 5 9
- 0.401909 1 2 tcp 1040 ------- 1 0.0 3.0 5 9
r 0.401909 0 1 tcp 1040 ------- 1 0.0 3.0 6 10
+ 0.401909 1 2 tcp 1040 ------- 1 0.0 3.0 6 10
r 0.402741 0 1 tcp 1040 ------- 1 0.0 3.0 7 11
+ 0.402741 1 2 tcp 1040 ------- 1 0.0 3.0 7 11
- 0.407456 1 2 tcp 1040 ------- 1 0.0 3.0 6 10
- 0.413003 1 2 tcp 1040 ------- 1 0.0 3.0 7 11
r 0.421909 1 2 tcp 1040 ------- 1 0.0 3.0 4 8
+ 0.421909 2 3 tcp 1040 ------- 1 0.0 3.0 4 8
- 0.421909 2 3 tcp 1040 ------- 1 0.0 3.0 4 8
r 0.427456 1 2 tcp 1040 ------- 1 0.0 3.0 5 9
+ 0.427456 2 3 tcp 1040 ------- 1 0.0 3.0 5 9
- 0.427456 2 3 tcp 1040 ------- 1 0.0 3.0 5 9
r 0.433003 1 2 tcp 1040 ------- 1 0.0 3.0 6 10
+ 0.433003 2 3 tcp 1040 ------- 1 0.0 3.0 6 10
- 0.433003 2 3 tcp 1040 ------- 1 0.0 3.0 6 10
r 0.438549 1 2 tcp 1040 ------- 1 0.0 3.0 7 11
+ 0.438549 2 3 tcp 1040 ------- 1 0.0 3.0 7 11
- 0.438549 2 3 tcp 1040 ------- 1 0.0 3.0 7 11
r 0.442741 2 3 tcp 1040 ------- 1 0.0 3.0 4 8
+ 0.442741 3 2 ack 40 ------- 1 3.0 0.0 4 12
- 0.442741 3 2 ack 40 ------- 1 3.0 0.0 4 12
r 0.448288 2 3 tcp 1040 ------- 1 0.0 3.0 5 9
+ 0.448288 3 2 ack 40 ------- 1 3.0 0.0 5 13
- 0.448288 3 2 ack 40 ------- 1 3.0 0.0 5 13
r 0.453835 2 3 tcp 1040 ------- 1 0.0 3.0 6 10
+ 0.453835 3 2 ack 40 ------- 1 3.0 0.0 6 14
- 0.453835 3 2 ack 40 ------- 1 3.0 0.0 6 14
r 0.459381 2 3 tcp 1040 ------- 1 0.0 3.0 7 11
+ 0.459381 3 2 ack 40 ------- 1 3.0 0.0 7 15
- 0.459381 3 2 ack 40 ------- 1 3.0 0.0 7 15
r 0.462773 3 2 ack 40 ------- 1 3.0 0.0 4 12
+ 0.462773 2 1 ack 40 ------- 1 3.0 0.0 4 12
- 0.462773 2 1 ack 40 ------- 1 3.0 0.0 4 12
r 0.46832 3 2 ack 40 ------- 1 3.0 0.0 5 13
+ 0.46832 2 1 ack 40 ------- 1 3.0 0.0 5 13
- 0.46832 2 1 ack 40 ------- 1 3.0 0.0 5 13
r 0.473867 3 2 ack 40 ------- 1 3.0 0.0 6 14
+ 0.473867 2 1 ack 40 ------- 1 3.0 0.0 6 14
- 0.473867 2 1 ack 40 ------- 1 3.0 0.0 6 14
r 0.479413 3 2 ack 40 ------- 1 3.0 0.0 7 15
+ 0.479413 2 1 ack 40 ------- 1 3.0 0.0 7 15
- 0.479413 2 1 ack 40 ------- 1 3.0 0.0 7 15
r 0.482987 2 1 ack 40 ------- 1 3.0 0.0 4 12
+ 0.482987 1 0 ack 40 ------- 1 3.0 0.0 4 12
- 0.482987 1 0 ack 40 ------- 1 3.0 0.0 4 12
r 0.488533 2 1 ack 40 ------- 1 3.0 0.0 5 13
+ 0.488533 1 0 ack 40 ------- 1 3.0 0.0 5 13
- 0.488533 1 0 ack 40 ------- 1 3.0 0.0 5 13
r 0.49408 2 1 ack 40 ------- 1 3.0 0.0 6 14
+ 0.49408 1 0 ack 40 ------- 1 3.0 0.0 6 14
- 0.49408 1 0 ack 40 ------- 1 3.0 0.0 6 14
r 0.499627 2 1 ack 40 ------- 1 3.0 0.0 7 15
+ 0.499627 1 0 ack 40 ------- 1 3.0 0.0 7 15
- 0.499627 1 0 ack 40 ------- 1 3.0 0.0 7 15
r 0.503019 1 0 ack 40 ------- 1 3.0 0.0 4 12
+ 0.503019 0 1 tcp 1040 ------- 1 0.0 3.0 8 16
- 0.503019 0 1 tcp 1040 ------- 1 0.0 3.0 8 16
+ 0.503019 0 1 tcp 1040 ------- 1 0.0 3.0 9 17
- 0.503851 0 1 tcp 1040 ------- 1 0.0 3.0 9 17
r 0.508565 1 0 ack 40 ------- 1 3.0 0.0 5 13
+ 0.508565 0 1 tcp 1040 ------- 1 0.0 3.0 10 18
- 0.508565 0 1 tcp 1040 ------- 1 0.0 3.0 10 18
+ 0.508565 0 1 tcp 1040 ------- 1 0.0 3.0 11 19
- 0.509397 0 1 tcp 1040 ------- 1 0.0 3.0 11 19
r 0.514112 1 0 ack 40 ------- 1 3.0 0.0 6 14
+ 0.514112 0 1 tcp 1040 ------- 1 0.0 3.0 12 20
- 0.514112 0 1 tcp 1040 ------- 1 0.0 3.0 12 20
+ 0.514112 0 1 tcp 1040 ------- 1 0.0 3.0 13 21
- 0.514944 0 1 tcp 1040 ------- 1 0.0 3.0 13 21
r 0.519659 1 0 ack 40 ------- 1 3.0 0.0 7 15
+ 0.519659 0 1 tcp 1040 ------- 1 0.0 3.0 14 22
- 0.519659 0 1 tcp 1040 ------- 1 0.0 3.0 14 22
+ 0.519659 0 1 tcp 1040 ------- 1 0.0 3.0 15 23
- 0.520491 0 1 tcp 1040 ------- 1 0.0 3.0 15 23
r 0.523851 0 1 tcp 1040 ------- 1 0.0 3.0 8 16
+ 0.523851 1 2 tcp 1040 ------- 1 0.0 3.0 8 16
- 0.523851 1 2 tcp 1040 ------- 1 0.0 3.0 8 16
r 0.524683 0 1 tcp 1040 ------- 1 0.0 3.0 9 17
+ 0.524683 1 2 tcp 1040 ------- 1 0.0 3.0 9 17
r 0.529397 0 1 tcp 1040 ------- 1 0.0 3.0 10 18
+ 0.529397 1 2 tcp 1040 ------- 1 0.0 3.0 10 18
- 0.529397 1 2 tcp 1040 ------- 1 0.0 3.0 9 17
r 0.530229 0 1 tcp 1040 ------- 1 0.0 3.0 11 19
+ 0.530229 1 2 tcp 1040 ------- 1 0.0 3.0 11 19
r 0.534944 0 1 tcp 1040 ------- 1 0.0 3.0 12 20
+ 0.534944 1 2 tcp 1040 ------- 1 0.0 3.0 12 20
- 0.534944 1 2 tcp 1040 ------- 1 0.0 3.0 10 18
r 0.535776 0 1 tcp 1040 ------- 1 0.0 3.0 13 21
+ 0.535776 1 2 tcp 1040 ------- 1 0.0 3.0 13 21
r 0.540491 0 1 tcp 1040 ------- 1 0.0 3.0 14 22
+ 0.540491 1 2 tcp 1040 ------- 1 0.0 3.0 14 22
- 0.540491 1 2 tcp 1040 ------- 1 0.0 3.0 11 19
r 0.541323 0 1 tcp 1040 ------- 1 0.0 3.0 15 23
+ 0.541323 1 2 tcp 1040 ------- 1 0.0 3.0 15 23
- 0.546037 1 2 tcp 1040 ------- 1 0.0 3.0 12 20
r 0.549397 1 2 tcp 1040 ------- 1 0.0 3.0 8 16
+ 0.549397 2 3 tcp 1040 ------- 1 0.0 3.0 8 16
- 0.549397 2 3 tcp 1040 ------- 1 0.0 3.0 8 16
- 0.551584 1 2 tcp 1040 ------- 1 0.0 3.0 13 21
r 0.554944 1 2 tcp 1040 ------- 1 0.0 3.0 9 17
+ 0.554944 2 3 tcp 1040 ------- 1 0.0 3.0 9 17
- 0.554944 2 3 tcp 1040 ------- 1 0.0 3.0 9 17
- 0.557131 1 2 tcp 1040 ------- 1 0.0 3.0 14 22
r 0.560491 1 2 tcp 1040 ------- 1 0.0 3.0 10 18
+ 0.560491 2 3 tcp 1040 ------- 1 0.0 3.0 10 18
- 0.560491 2 3 tcp 1040 ------- 1 0.0 3.0 10 18
- 0.562677 1 2 tcp 1040 ------- 1 0.0 3.0 15 23
r 0.566037 1 2 tcp 1040 ------- 1 0.0 3.0 11 19
+ 0.566037 2 3 tcp 1040 ------- 1 0.0 3.0 11 19
- 0.566037 2 3 tcp 1040 ------- 1 0.0 3.0 11 19
r 0.570229 2 3 tcp 1040 ------- 1 0.0 3.0 8 16
+ 0.570229 3 2 ack 40 ------- 1 3.0 0.0 8 24
- 0.570229 3 2 ack 40 ------- 1 3.0 0.0 8 24
r 0.571584 1 2 tcp 1040 ------- 1 0.0 3.0 12 20
+ 0.571584 2 3 tcp 1040 ------- 1 0.0 3.0 12 20
- 0.571584 2 3 tcp 1040 ------- 1 0.0 3.0 12 20
r 0.575776 2 3 tcp 1040 ------- 1 0.0 3.0 9 17
+ 0.575776 3 2 ack 40 ------- 1 3.0 0.0 9 25
- 0.575776 3 2 ack 40 ------- 1 3.0 0.0 9 25
r 0.577131 1 2 tcp 1040 ------- 1 0.0 3.0 13 21
+ 0.577131 2 3 tcp 1040 ------- 1 0.0 3.0 13 21
- 0.577131 2 3 tcp 1040 ------- 1 0.0 3.0 13 21
r 0.581323 2 3 tcp 1040 ------- 1 0.0 3.0 10 18
+ 0.581323 3 2 ack 40 ------- 1 3.0 0.0 10 26
- 0.581323 3 2 ack 40 ------- 1 3.0 0.0 10 26
r 0.582677 1 2 tcp 1040 ------- 1 0.0 3.0 14 22
+ 0.582677 2 3 tcp 1040 ------- 1 0.0 3.0 14 22
- 0.582677 2 3 tcp 1040 ------- 1 0.0 3.0 14 22
r 0.586869 2 3 tcp 1040 ------- 1 0.0 3.0 11 19
+ 0.586869 3 2 ack 40 ------- 1 3.0 0.0 11 27
- 0.586869 3 2 ack 40 ------- 1 3.0 0.0 11 27
r 0.588224 1 2 tcp 1040 ------- 1 0.0 3.0 15 23
+ 0.588224 2 3 tcp 1040 ------- 1 0.0 3.0 15 23
- 0.588224 2 3 tcp 1040 ------- 1 0.0 3.0 15 23
r 0.590261 3 2 ack 40 ------- 1 3.0 0.0 8 24
+ 0.590261 2 1 ack 40 ------- 1 3.0 0.0 8 24
- 0.590261 2 1 ack 40 ------- 1 3.0 0.0 8 24
r 0.592416 2 3 tcp 1040 ------- 1 0.0 3.0 12 20
+ 0.592416 3 2 ack 40 ------- 1 3.0 0.0 12 28
- 0.592416 3 2 ack 40 ------- 1 3.0 0.0 12 28
r 0.595808 3 2 ack 40 ------- 1 3.0 0.0 9 25
+ 0.595808 2 1 ack 40 ------- 1 3.0 0.0 9 25
- 0.595808 2 1 ack 40 ------- 1 3.0 0.0 9 25
r 0.597963 2 3 tcp 1040 ------- 1 0.0 3.0 13 21
+ 0.597963 3 2 ack 40 ------- 1 3.0 0.0 13 29
- 0.597963 3 2 ack 40 ------- 1 3.0 0.0 13 29
r 0.601355 3 2 ack 40 ------- 1 3.0 0.0 10 26
+ 0.601355 2 1 ack 40 ------- 1 3.0 0.0 10 26
- 0.601355 2 1 ack 40 ------- 1 3.0 0.0 10 26
r 0.603509 2 3 tcp 1040 ------- 1 0.0 3.0 14 22
+ 0.603509 3 2 ack 40 ------- 1 3.0 0.0 14 30
- 0.603509 3 2 ack 40 ------- 1 3.0 0.0 14 30
r 0.606901 3 2 ack 40 ------- 1 3.0 0.0 11 27
+ 0.606901 2 1 ack 40 ------- 1 3.0 0.0 11 27
- 0.606901 2 1 ack 40 ------- 1 3.0 0.0 11 27
r 0.609056 2 3 tcp 1040 ------- 1 0.0 3.0 15 23
+ 0.609056 3 2 ack 40 ------- 1 3.0 0.0 15 31
- 0.609056 3 2 ack 40 ------- 1 3.0 0.0 15 31
r 0.610475 2 1 ack 40 ------- 1 3.0 0.0 8 24
+ 0.610475 1 0 ack 40 ------- 1 3.0 0.0 8 24
- 0.610475 1 0 ack 40 ------- 1 3.0 0.0 8 24
r 0.612448 3 2 ack 40 ------- 1 3.0 0.0 12 28
+ 0.612448 2 1 ack 40 ------- 1 3.0 0.0 12 28
- 0.612448 2 1 ack 40 ------- 1 3.0 0.0 12 28
r 0.616021 2 1 ack 40 ------- 1 3.0 0.0 9 25
+ 0.616021 1 0 ack 40 ------- 1 3.0 0.0 9 25
- 0.616021 1 0 ack 40 ------- 1 3.0 0.0 9 25
r 0.617995 3 2 ack 40 ------- 1 3.0 0.0 13 29
+ 0.617995 2 1 ack 40 ------- 1 3.0 0.0 13 29
- 0.617995 2 1 ack 40 ------- 1 3.0 0.0 13 29
r 0.621568 2 1 ack 40 ------- 1 3.0 0.0 10 26
+ 0.621568 1 0 ack 40 ------- 1 3.0 0.0 10 26
- 0.621568 1 0 ack 40 ------- 1 3.0 0.0 10 26
r 0.623541 3 2 ack 40 ------- 1 3.0 0.0 14 30
+ 0.623541 2 1 ack 40 ------- 1 3.0 0.0 14 30
- 0.623541 2 1 ack 40 ------- 1 3.0 0.0 14 30
r 0.627115 2 1 ack 40 ------- 1 3.0 0.0 11 27
+ 0.627115 1 0 ack 40 ------- 1 3.0 0.0 11 27
- 0.627115 1 0 ack 40 ------- 1 3.0 0.0 11 27
r 0.629088 3 2 ack 40 ------- 1 3.0 0.0 15 31
+ 0.629088 2 1 ack 40 ------- 1 3.0 0.0 15 31
- 0.629088 2 1 ack 40 ------- 1 3.0 0.0 15 31
r 0.630507 1 0 ack 40 ------- 1 3.0 0.0 8 24
+ 0.630507 0 1 tcp 1040 ------- 1 0.0 3.0 16 32
- 0.630507 0 1 tcp 1040 ------- 1 0.0 3.0 16 32
+ 0.630507 0 1 tcp 1040 ------- 1 0.0 3.0 17 33
- 0.631339 0 1 tcp 1040 ------- 1 0.0 3.0 17 33
r 0.632661 2 1 ack 40 ------- 1 3.0 0.0 12 28
+ 0.632661 1 0 ack 40 ------- 1 3.0 0.0 12 28
- 0.632661 1 0 ack 40 ------- 1 3.0 0.0 12 28
r 0.636053 1 0 ack 40 ------- 1 3.0 0.0 9 25
+ 0.636053 0 1 tcp 1040 ------- 1 0.0 3.0 18 34
- 0.636053 0 1 tcp 1040 ------- 1 0.0 3.0 18 34
+ 0.636053 0 1 tcp 1040 ------- 1 0.0 3.0 19 35
- 0.636885 0 1 tcp 1040 ------- 1 0.0 3.0 19 35
r 0.638208 2 1 ack 40 ------- 1 3.0 0.0 13 29
+ 0.638208 1 0 ack 40 ------- 1 3.0 0.0 13 29
- 0.638208 1 0 ack 40 ------- 1 3.0 0.0 13 29
r 0.6416 1 0 ack 40 ------- 1 3.0 0.0 10 26
+ 0.6416 0 1 tcp 1040 ------- 1 0.0 3.0 20 36
- 0.6416 0 1 tcp 1040 ------- 1 0.0 3.0 20 36
+ 0.6416 0 1 tcp 1040 ------- 1 0.0 3.0 21 37
- 0.642432 0 1 tcp 1040 ------- 1 0.0 3.0 21 37
r 0.643755 2 1 ack 40 ------- 1 3.0 0.0 14 30
+ 0.643755 1 0 ack 40 ------- 1 3.0 0.0 14 30
- 0.643755 1 0 ack 40 ------- 1 3.0 0.0 14 30
r 0.647147 1 0 ack 40 ------- 1 3.0 0.0 11 27
+ 0.647147 0 1 tcp 1040 ------- 1 0.0 3.0 22 38
- 0.647147 0 1 tcp 1040 ------- 1 0.0 3.0 22 38
+ 0.647147 0 1 tcp 1040 ------- 1 0.0 3.0 23 39
- 0.647979 0 1 tcp 1040 ------- 1 0.0 3.0 23 39
r 0.649301 2 1 ack 40 ------- 1 3.0 0.0 15 31
+ 0.649301 1 0 ack 40 ------- 1 3.0 0.0 15 31
- 0.649301 1 0 ack 40 ------- 1 3.0 0.0 15 31
r 0.651339 0 1 tcp 1040 ------- 1 0.0 3.0 16 32
+ 0.651339 1 2 tcp 1040 ------- 1 0.0 3.0 16 32
- 0.651339 1 2 tcp 1040 ------- 1 0.0 3.0 16 32
r 0.652171 0 1 tcp 1040 ------- 1 0.0 3.0 17 33
+ 0.652171 1 2 tcp 1040 ------- 1 0.0 3.0 17 33
r 0.652693 1 0 ack 40 ------- 1 3.0 0.0 12 28
+ 0.652693 0 1 tcp 1040 ------- 1 0.0 3.0 24 40
- 0.652693 0 1 tcp 1040 ------- 1 0.0 3.0 24 40
+ 0.652693 0 1 tcp 1040 ------- 1 0.0 3.0 25 41
- 0.653525 0 1 tcp 1040 ------- 1 0.0 3.0 25 41
r 0.656885 0 1 tcp 1040 ------- 1 0.0 3.0 18 34
+ 0.656885 1 2 tcp 1040 ------- 1 0.0 3.0 18 34
- 0.656885 1 2 tcp 1040 ------- 1 0.0 3.0 17 33
r 0.657717 0 1 tcp 1040 ------- 1 0.0 3.0 19 35
+ 0.657717 1 2 tcp 1040 ------- 1 0.0 3.0 19 35
r 0.65824 1 0 ack 40 ------- 1 3.0 0.0 13 29
+ 0.65824 0 1 tcp 1040 ------- 1 0.0 3.0 26 42
- 0.65824 0 1 tcp 1040 ------- 1 0.0 3.0 26 42
+ 0.65824 0 1 tcp 1040 ------- 1 0.0 3.0 27 43
- 0.659072 0 1 tcp 1040 ------- 1 0.0 3.0 27 43
r 0.662432 0 1 tcp 1040 ------- 1 0.0 3.0 20 36
+ 0.662432 1 2 tcp 1040 ------- 1 0.0 3.0 20 36
- 0.662432 1 2 tcp 1040 ------- 1 0.0 3.0 18 34
r 0.663264 0 1 tcp 1040 ------- 1 0.0 3.0 21 37
+ 0.663264 1 2 tcp 1040 ------- 1 0.0 3.0 21 37
r 0.663787 1 0 ack 40 ------- 1 3.0 0.0 14 30
+ 0.663787 0 1 tcp 1040 ------- 1 0.0 3.0 28 44
- 0.663787 0 1 tcp 1040 ------- 1 0.0 3.0 28 44
+ 0.663787 0 1 tcp 1040 ------- 1 0.0 3.0 29 45
- 0.664619 0 1 tcp 1040 ------- 1 0.0 3.0 29 45
r 0.667979 0 1 tcp 1040 ------- 1 0.0 3.0 22 38
+ 0.667979 1 2 tcp 1040 ------- 1 0.0 3.0 22 38
- 0.667979 1 2 tcp 1040 ------- 1 0.0 3.0 19 35
r 0.668811 0 1 tcp 1040 ------- 1 0.0 3.0 23 39
+ 0.668811 1 2 tcp 1040 ------- 1 0.0 3.0 23 39
r 0.669333 1 0 ack 40 ------- 1 3.0 0.0 15 31
+ 0.669333 0 1 tcp 1040 ------- 1 0.0 3.0 30 46
- 0.669333 0 1 tcp 1040 ------- 1 0.0 3.0 30 46
+ 0.669333 0 1 tcp 1040 ------- 1 0.0 3.0 31 47
- 0.670165 0 1 tcp 1040 ------- 1 0.0 3.0 31 47
r 0.673525 0 1 tcp 1040 ------- 1 0.0 3.0 24 40
+ 0.673525 1 2 tcp 1040 ------- 1 0.0 3.0 24 40
- 0.673525 1 2 tcp 1040 ------- 1 0.0 3.0 20 36
r 0.674357 0 1 tcp 1040 ------- 1 0.0 3.0 25 41
+ 0.674357 1 2 tcp 1040 ------- 1 0.0 3.0 25 41
r 0.676885 1 2 tcp 1040 ------- 1 0.0 3.0 16 32
+ 0.676885 2 3 tcp 1040 ------- 1 0.0 3.0 16 32
- 0.676885 2 3 tcp 1040 ------- 1 0.0 3.0 16 32
r 0.679072 0 1 tcp 1040 ------- 1 0.0 3.0 26 42
+ 0.679072 1 2 tcp 1040 ------- 1 0.0 3.0 26 42
- 0.679072 1 2 tcp 1040 ------- 1 0.0 3.0 21 37
r 0.679904 0 1 tcp 1040 ------- 1 0.0 3.0 27 43
+ 0.679904 1 2 tcp 1040 ------- 1 0.0 3.0 27 43
r 0.682432 1 2 tcp 1040 ------- 1 0.0 3.0 17 33
+ 0.682432 2 3 tcp 1040 ------- 1 0.0 3.0 17 33
- 0.682432 2 3 tcp 1040 ------- 1 0.0 3.0 17 33
r 0.684619 0 1 tcp 1040 ------- 1 0.0 3.0 28 44
+ 0.684619 1 2 tcp 1040 ------- 1 0.0 3.0 28 44
- 0.684619 1 2 tcp 1040 ------- 1 0.0 3.0 22 38
r 0.685451 0 1 tcp 1040 ------- 1 0.0 3.0 29 45
+ 0.685451 1 2 tcp 1040 ------- 1 0.0 3.0 29 45
r 0.687979 1 2 tcp 1040 ------- 1 0.0 3.0 18 34
+ 0.687979 2 3 tcp 1040 ------- 1 0.0 3.0 18 34
- 0.687979 2 3 tcp 1040 ------- 1 0.0 3.0 18 34
r 0.690165 0 1 tcp 1040 ------- 1 0.0 3.0 30 46
+ 0.690165 1 2 tcp 1040 ------- 1 0.0 3.0 30 46
- 0.690165 1 2 tcp 1040 ------- 1 0.0 3.0 23 39
r 0.690997 0 1 tcp 1040 ------- 1 0.0 3.0 31 47
+ 0.690997 1 2 tcp 1040 ------- 1 0.0 3.0 31 47
r 0.693525 1 2 tcp 1040 ------- 1 0.0 3.0 19 35
+ 0.693525 2 3 tcp 1040 ------- 1 0.0 3.0 19 35
- 0.693525 2 3 tcp 1040 ------- 1 0.0 3.0 19 35
- 0.695712 1 2 tcp 1040 ------- 1 0.0 3.0 24 40
r 0.697717 2 3 tcp 1040 ------- 1 0.0 3.0 16 32
+ 0.697717 3 2 ack 40 ------- 1 3.0 0.0 16 48
- 0.697717 3 2 ack 40 ------- 1 3.0 0.0 16 48
r 0.699072 1 2 tcp 1040 ------- 1 0.0 3.0 20 36
+ 0.699072 2 3 tcp 1040 ------- 1 0.0 3.0 20 36
- 0.699072 2 3 tcp 1040 ------- 1 0.0 3.0 20 36
- 0.701259 1 2 tcp 1040 ------- 1 0.0 3.0 25 41
r 0.703264 2 3 tcp 1040 ------- 1 0.0 3.0 17 33
+ 0.703264 3 2 ack 40 ------- 1 3.0 0.0 17 49
- 0.703264 3 2 ack 40 ------- 1 3.0 0.0 17 49
r 0.704619 1 2 tcp 1040 ------- 1 0.0 3.0 21 37
+ 0.704619 2 3 tcp 1040 ------- 1 0.0 3.0 21 37
- 0.704619 2 3 tcp 1040 ------- 1 0.0 3.0 21 37
- 0.706805 1 2 tcp 1040 ------- 1 0.0 3.0 26 42
r 0.708811 2 3 tcp 1040 ------- 1 0.0 3.0 18 34
+ 0.708811 3 2 ack 40 ------- 1 3.0 0.0 18 50
- 0.708811 3 2 ack 40 ------- 1 3.0 0.0 18 50
r 0.710165 1 2 tcp 1040 ------- 1 0.0 3.0 22 38
+ 0.710165 2 3 tcp 1040 ------- 1 0.0 3.0 22 38
- 0.710165 2 3 tcp 1040 ------- 1 0.0 3.0 22 38
- 0.712352 1 2 tcp 1040 ------- 1 0.0 3.0 27 43
r 0.714357 2 3 tcp 1040 ------- 1 0.0 3.0 19 35
+ 0.714357 3 2 ack 40 ------- 1 3.0 0.0 19 51
- 0.714357 3 2 ack 40 ------- 1 3.0 0.0 19 51
r 0.715712 1 2 tcp 1040 ------- 1 0.0 3.0 23 39
+ 0.715712 2 3 tcp 1040 ------- 1 0.0 3.0 23 39
- 0.715712 2 3 tcp 1040 ------- 1 0.0 3.0 23 39
r 0.717749 3 2 ack 40 ------- 1 3.0 0.0 16 48
+ 0.717749 2 1 ack 40 ------- 1 3.0 0.0 16 48
- 0.717749 2 1 ack 40 ------- 1 3.0 0.0 16 48
- 0.717899 1 2 tcp 1040 ------- 1 0.0 3.0 28 44
r 0.719904 2 3 tcp 1040 ------- 1 0.0 3.0 20 36
+ 0.719904 3 2 ack 40 ------- 1 3.0 0.0 20 52
- 0.719904 3 2 ack 40 ------- 1 3.0 0.0 20 52
r 0.721259 1 2 tcp 1040 ------- 1 0.0 3.0 24 40
+ 0.721259 2 3 tcp 1040 ------- 1 0.0 3.0 24 40
- 0.721259 2 3 tcp 1040 ------- 1 0.0 3.0 24 40
r 0.723296 3 2 ack 40 ------- 1 3.0 0.0 17 49
+ 0.723296 2 1 ack 40 ------- 1 3.0 0.0 17 49
- 0.723296 2 1 ack 40 ------- 1 3.0 0.0 17 49
- 0.723445 1 2 tcp 1040 ------- 1 0.0 3.0 29 45
r 0.725451 2 3 tcp 1040 ------- 1 0.0 3.0 21 37
+ 0.725451 3 2 ack 40 ------- 1 3.0 0.0 21 53
- 0.725451 3 2 ack 40 ------- 1 3.0 0.0 21 53
r 0.726805 1 2 tcp 1040 ------- 1 0.0 3.0 25 41
+ 0.726805 2 3 tcp 1040 ------- 1 0.0 3.0 25 41
- 0.726805 2 3 tcp 1040 ------- 1 0.0 3.0 25 41
r 0.728843 3 2 ack 40 ------- 1 3.0 0.0 18 50
+ 0.728843 2 1 ack 40 ------- 1 3.0 0.0 18 50
- 0.728843 2 1 ack 40 ------- 1 3.0 0.0 18 50
- 0.728992 1 2 tcp 1040 ------- 1 0.0 3.0 30 46
r 0.730997 2 3 tcp 1040 ------- 1 0.0 3.0 22 38
+ 0.730997 3 2 ack 40 ------- 1 3.0 0.0 22 54
- 0.730997 3 2 ack 40 ------- 1 3.0 0.0 22 54
r 0.732352 1 2 tcp 1040 ------- 1 0.0 3.0 26 42
+ 0.732352 2 3 tcp 1040 ------- 1 0.0 3.0 26 42
- 0.732352 2 3 tcp 1040 ------- 1 0.0 3.0 26 42
r 0.734389 3 2 ack 40 ------- 1 3.0 0.0 19 51
+ 0.734389 2 1 ack 40 ------- 1 3.0 0.0 19 51
- 0.734389 2 1 ack 40 ------- 1 3.0 0.0 19 51
- 0.734539 1 2 tcp 1040 ------- 1 0.0 3.0 31 47
r 0.736544 2 3 tcp 1040 ------- 1 0.0 3.0 23 39
+ 0.736544 3 2 ack 40 ------- 1 3.0 0.0 23 55
- 0.736544 3 2 ack 40 ------- 1 3.0 0.0 23 55
r 0.737899 1 2 tcp 1040 ------- 1 0.0 3.0 27 43
+ 0.737899 2 3 tcp 1040 ------- 1 0.0 3.0 27 43
- 0.737899 2 3 tcp 1040 ------- 1 0.0 3.0 27 43
r 0.737963 2 1 ack 40 ------- 1 3.0 0.0 16 48
+ 0.737963 1 0 ack 40 ------- 1 3.0 0.0 16 48
- 0.737963 1 0 ack 40 ------- 1 3.0 0.0 16 48
r 0.739936 3 2 ack 40 ------- 1 3.0 0.0 20 52
+ 0.739936 2 1 ack 40 ------- 1 3.0 0.0 20 52
- 0.739936 2 1 ack 40 ------- 1 3.0 0.0 20 52
r 0.742091 2 3 tcp 1040 ------- 1 0.0 3.0 24 40
+ 0.742091 3 2 ack 40 ------- 1 3.0 0.0 24 56
- 0.742091 3 2 ack 40 ------- 1 3.0 0.0 24 56
r 0.743445 1 2 tcp 1040 ------- 1 0.0 3.0 28 44
+ 0.743445 2 3 tcp 1040 ------- 1 0.0 3.0 28 44
- 0.743445 2 3 tcp 1040 ------- 1 0.0 3.0 28 44
r 0.743509 2 1 ack 40 ------- 1 3.0 0.0 17 49
+ 0.743509 1 0 ack 40 ------- 1 3.0 0.0 17 49
- 0.743509 1 0 ack 40 ------- 1 3.0 0.0 17 49
r 0.745483 3 2 ack 40 ------- 1 3.0 0.0 21 53
+ 0.745483 2 1 ack 40 ------- 1 3.0 0.0 21 53
- 0.745483 2 1 ack 40 ------- 1 3.0 0.0 21 53
r 0.747637 2 3 tcp 1040 ------- 1 0.0 3.0 25 41
+ 0.747637 3 2 ack 40 ------- 1 3.0 0.0 25 57
- 0.747637 3 2 ack 40 ------- 1 3.0 0.0 25 57
r 0.748992 1 2 tcp 1040 ------- 1 0.0 3.0 29 45
+ 0.748992 2 3 tcp 1040 ------- 1 0.0 3.0 29 45
- 0.748992 2 3 tcp 1040 ------- 1 0.0 3.0 29 45
r 0.749056 2 1 ack 40 ------- 1 3.0 0.0 18 50
+ 0.749056 1 0 ack 40 ------- 1 3.0 0.0 18 50
- 0.749056 1 0 ack 40 ------- 1 3.0 0.0 18 50
r 0.751029 3 2 ack 40 ------- 1 3.0 0.0 22 54
+ 0.751029 2 1 ack 40 ------- 1 3.0 0.0 22 54
- 0.751029 2 1 ack 40 ------- 1 3.0 0.0 22 54
r 0.753184 2 3 tcp 1040 ------- 1 0.0 3.0 26 42
+ 0.753184 3 2 ack 40 ------- 1 3.0 0.0 26 58
- 0.753184 3 2 ack 40 ------- 1 3.0 0.0 26 58
r 0.754539 1 2 tcp 1040 ------- 1 0.0 3.0 30 46
+ 0.754539 2 3 tcp 1040 ------- 1 0.0 3.0 30 46
- 0.754539 2 3 tcp 1040 ------- 1 0.0 3.0 30 46
r 0.754603 2 1 ack 40 ------- 1 3.0 0.0 19 51
+ 0.754603 1 0 ack 40 ------- 1 3.0 0.0 19 51
- 0.754603 1 0 ack 40 ------- 1 3.0 0.0 19 51
r 0.756576 3 2 ack 40 ------- 1 3.0 0.0 23 55
+ 0.756576 2 1 ack 40 ------- 1 3.0 0.0 23 55
- 0.756576 2 1 ack 40 ------- 1 3.0 0.0 23 55
r 0.757995 1 0 ack 40 ------- 1 3.0 0.0 16 48
+ 0.757995 0 1 tcp 1040 ------- 1 0.0 3.0 32 59
- 0.757995 0 1 tcp 1040 ------- 1 0.0 3.0 32 59
+ 0.757995 0 1 tcp 1040 ------- 1 0.0 3.0 33 60
r 0.758731 2 3 tcp 1040 ------- 1 0.0 3.0 27 43
+ 0.758731 3 2 ack 40 ------- 1 3.0 0.0 27 61
- 0.758731 3 2 ack 40 ------- 1 3.0 0.0 27 61
- 0.758827 0 1 tcp 1040 ------- 1 0.0 3.0 33 60
r 0.760085 1 2 tcp 1040 ------- 1 0.0 3.0 31 47
+ 0.760085 2 3 tcp 1040 ------- 1 0.0 3.0 31 47
- 0.760085 2 3 tcp 1040 ------- 1 0.0 3.0 31 47
r 0.760149 2 1 ack 40 ------- 1 3.0 0.0 20 52
+ 0.760149 1 0 ack 40 ------- 1 3.0 0.0 20 52
- 0.760149 1 0 ack 40 ------- 1 3.0 0.0 20 52
r 0.762123 3 2 ack 40 ------- 1 3.0 0.0 24 56
+ 0.762123 2 1 ack 40 ------- 1 3.0 0.0 24 56
- 0.762123 2 1 ack 40 ------- 1 3.0 0.0 24 56
r 0.763541 1 0 ack 40 ------- 1 3.0 0.0 17 49
+ 0.763541 0 1 tcp 1040 ------- 1 0.0 3.0 34 62
- 0.763541 0 1 tcp 1040 ------- 1 0.0 3.0 34 62
+ 0.763541 0 1 tcp 1040 ------- 1 0.0 3.0 35 63
r 0.764277 2 3 tcp 1040 ------- 1 0.0 3.0 28 44
+ 0.764277 3 2 ack 40 ------- 1 3.0 0.0 28 64
- 0.764277 3 2 ack 40 ------- 1 3.0 0.0 28 64
- 0.764373 0 1 tcp 1040 ------- 1 0.0 3.0 35 63
r 0.765696 2 1 ack 40 ------- 1 3.0 0.0 21 53
+ 0.765696 1 0 ack 40 ------- 1 3.0 0.0 21 53
- 0.765696 1 0 ack 40 ------- 1 3.0 0.0 21 53
r 0.767669 3 2 ack 40 ------- 1 3.0 0.0 25 57
+ 0.767669 2 1 ack 40 ------- 1 3.0 0.0 25 57
- 0.767669 2 1 ack 40 ------- 1 3.0 0.0 25 57
r 0.769088 1 0 ack 40 ------- 1 3.0 0.0 18 50
+ 0.769088 0 1 tcp 1040 ------- 1 0.0 3.0 36 65
- 0.769088 0 1 tcp 1040 ------- 1 0.0 3.0 36 65
+ 0.769088 0 1 tcp 1040 ------- 1 0.0 3.0 37 66
r 0.769824 2 3 tcp 1040 ------- 1 0.0 3.0 29 45
+ 0.769824 3 2 ack 40 ------- 1 3.0 0.0 29 67
- 0.769824 3 2 ack 40 ------- 1 3.0 0.0 29 67
- 0.76992 0 1 tcp 1040 ------- 1 0.0 3.0 37 66
r 0.771243 2 1 ack 40 ------- 1 3.0 0.0 22 54
+ 0.771243 1 0 ack 40 ------- 1 3.0 0.0 22 54
- 0.771243 1 0 ack 40 ------- 1 3.0 0.0 22 54
r 0.773216 3 2 ack 40 ------- 1 3.0 0.0 26 58
+ 0.773216 2 1 ack 40 ------- 1 3.0 0.0 26 58
- 0.773216 2 1 ack 40 ------- 1 3.0 0.0 26 58
r 0.774635 1 0 ack 40 ------- 1 3.0 0.0 19 51
+ 0.774635 0 1 tcp 1040 ------- 1 0.0 3.0 38 68
- 0.774635 0 1 tcp 1040 ------- 1 0.0 3.0 38 68
+ 0.774635 0 1 tcp 1040 ------- 1 0.0 3.0 39 69
r 0.775371 2 3 tcp 1040 ------- 1 0.0 3.0 30 46
+ 0.775371 3 2 ack 40 ------- 1 3.0 0.0 30 70
- 0.775371 3 2 ack 40 ------- 1 3.0 0.0 30 70
- 0.775467 0 1 tcp 1040 ------- 1 0.0 3.0 39 69
r 0.776789 2 1 ack 40 ------- 1 3.0 0.0 23 55
+ 0.776789 1 0 ack 40 ------- 1 3.0 0.0 23 55
- 0.776789 1 0 ack 40 ------- 1 3.0 0.0 23 55
r 0.778763 3 2 ack 40 ------- 1 3.0 0.0 27 61
+ 0.778763 2 1 ack 40 ------- 1 3.0 0.0 27 61
- 0.778763 2 1 ack 40 ------- 1 3.0 0.0 27 61
r 0.778827 0 1 tcp 1040 ------- 1 0.0 3.0 32 59
+ 0.778827 1 2 tcp 1040 ------- 1 0.0 3.0 32 59
- 0.778827 1 2 tcp 1040 ------- 1 0.0 3.0 32 59
r 0.779659 0 1 tcp 1040 ------- 1 0.0 3.0 33 60
+ 0.779659 1 2 tcp 1040 ------- 1 0.0 3.0 33 60
r 0.780181 1 0 ack 40 ------- 1 3.0 0.0 20 52
+ 0.780181 0 1 tcp 1040 ------- 1 0.0 3.0 40 71
- 0.780181 0 1 tcp 1040 ------- 1 0.0 3.0 40 71
r 0.780917 2 3 tcp 1040 ------- 1 0.0 3.0 31 47
+ 0.780917 3 2 ack 40 ------- 1 3.0 0.0 31 72
- 0.780917 3 2 ack 40 ------- 1 3.0 0.0 31 72
r 0.782336 2 1 ack 40 ------- 1 3.0 0.0 24 56
+ 0.782336 1 0 ack 40 ------- 1 3.0 0.0 24 56
- 0.782336 1 0 ack 40 ------- 1 3.0 0.0 24 56
r 0.784309 3 2 ack 40 ------- 1 3.0 0.0 28 64
+ 0.784309 2 1 ack 40 ------- 1 3.0 0.0 28 64
- 0.784309 2 1 ack 40 ------- 1 3.0 0.0 28 64
r 0.784373 0 1 tcp 1040 ------- 1 0.0 3.0 34 62
+ 0.784373 1 2 tcp 1040 ------- 1 0.0 3.0 34 62
- 0.784373 1 2 tcp 1040 ------- 1 0.0 3.0 33 60
r 0.785205 0 1 tcp 1040 ------- 1 0.0 3.0 35 63
+ 0.785205 1 2 tcp 1040 ------- 1 0.0 3.0 35 63
r 0.785728 1 0 ack 40 ------- 1 3.0 0.0 21 53
+ 0.785728 0 1 tcp 1040 ------- 1 0.0 3.0 41 73
- 0.785728 0 1 tcp 1040 ------- 1 0.0 3.0 41 73
r 0.787883 2 1 ack 40 ------- 1 3.0 0.0 25 57
+ 0.787883 1 0 ack 40 ------- 1 3.0 0.0 25 57
- 0.787883 1 0 ack 40 ------- 1 3.0 0.0 25 57
r 0.789856 3 2 ack 40 ------- 1 3.0 0.0 29 67
+ 0.789856 2 1 ack 40 ------- 1 3.0 0.0 29 67
- 0.789856 2 1 ack 40 ------- 1 3.0 0.0 29 67
r 0.78992 0 1 tcp 1040 ------- 1 0.0 3.0 36 65
+ 0.78992 1 2 tcp 1040 ------- 1 0.0 3.0 36 65
- 0.78992 1 2 tcp 1040 ------- 1 0.0 3.0 34 62
r 0.790752 0 1 tcp 1040 ------- 1 0.0 3.0 37 66
+ 0.790752 1 2 tcp 1040 ------- 1 0.0 3.0 37 66
r 0.791275 1 0 ack 40 ------- 1 3.0 0.0 22 54
+ 0.791275 0 1 tcp 1040 ------- 1 0.0 3.0 42 74
- 0.791275 0 1 tcp 1040 ------- 1 0.0 3.0 42 74
r 0.793429 2 1 ack 40 ------- 1 3.0 0.0 26 58
+ 0.793429 1 0 ack 40 ------- 1 3.0 0.0 26 58
- 0.793429 1 0 ack 40 ------- 1 3.0 0.0 26 58
r 0.795403 3 2 ack 40 ------- 1 3.0 0.0 30 70
+ 0.795403 2 1 ack 40 ------- 1 3.0 0.0 30 70
- 0.795403 2 1 ack 40 ------- 1 3.0 0.0 30 70
r 0.795467 0 1 tcp 1040 ------- 1 0.0 3.0 38 68
+ 0.795467 1 2 tcp 1040 ------- 1 0.0 3.0 38 68
- 0.795467 1 2 tcp 1040 ------- 1 0.0 3.0 35 63
r 0.796299 0 1 tcp 1040 ------- 1 0.0 3.0 39 69
+ 0.796299 1 2 tcp 1040 ------- 1 0.0 3.0 39 69
r 0.796821 1 0 ack 40 ------- 1 3.0 0.0 23 55
+ 0.796821 0 1 tcp 1040 ------- 1 0.0 3.0 43 75
- 0.796821 0 1 tcp 1040 ------- 1 0.0 3.0 43 75
r 0.798976 2 1 ack 40 ------- 1 3.0 0.0 27 61
+ 0.798976 1 0 ack 40 ------- 1 3.0 0.0 27 61
- 0.798976 1 0 ack 40 ------- 1 3.0 0.0 27 61
r 0.800949 3 2 ack 40 ------- 1 3.0 0.0 31 72
+ 0.800949 2 1 ack 40 ------- 1 3.0 0.0 31 72
- 0.800949 2 1 ack 40 ------- 1 3.0 0.0 31 72
r 0.801013 0 1 tcp 1040 ------- 1 0.0 3.0 40 71
+ 0.801013 1 2 tcp 1040 ------- 1 0.0 3.0 40 71
- 0.801013 1 2 tcp 1040 ------- 1 0.0 3.0 36 65
r 0.802368 1 0 ack 40 ------- 1 3.0 0.0 24 56
+ 0.802368 0 1 tcp 1040 ------- 1 0.0 3.0 44 76
- 0.802368 0 1 tcp 1040 ------- 1 0.0 3.0 44 76
r 0.804373 1 2 tcp 1040 ------- 1 0.0 3.0 32 59
+ 0.804373 2 3 tcp 1040 ------- 1 0.0 3.0 32 59
- 0.804373 2 3 tcp 1040 ------- 1 0.0 3.0 32 59
r 0.804523 2 1 ack 40 ------- 1 3.0 0.0 28 64
+ 0.804523 1 0 ack 40 ------- 1 3.0 0.0 28 64
- 0.804523 1 0 ack 40 ------- 1 3.0 0.0 28 64
r 0.80656 0 1 tcp 1040 ------- 1 0.0 3.0 41 73
+ 0.80656 1 2 tcp 1040 ------- 1 0.0 3.0 41 73
- 0.80656 1 2 tcp 1040 ------- 1 0.0 3.0 37 66
r 0.807915 1 0 ack 40 ------- 1 3.0 0.0 25 57
+ 0.807915 0 1 tcp 1040 ------- 1 0.0 3.0 45 77
- 0.807915 0 1 tcp 1040 ------- 1 0.0 3.0 45 77
r 0.80992 1 2 tcp 1040 ------- 1 0.0 3.0 33 60
+ 0.80992 2 3 tcp 1040 ------- 1 0.0 3.0 33 60
- 0.80992 2 3 tcp 1040 ------- 1 0.0 3.0 33 60
r 0.810069 2 1 ack 40 ------- 1 3.0 0.0 29 67
+ 0.810069 1 0 ack 40 ------- 1 3.0 0.0 29 67
- 0.810069 1 0 ack 40 ------- 1 3.0 0.0 29 67
r 0.812107 0 1 tcp 1040 ------- 1 0.0 3.0 42 74
+ 0.812107 1 2 tcp 1040 ------- 1 0.0 3.0 42 74
- 0.812107 1 2 tcp 1040 ------- 1 0.0 3.0 38 68
r 0.813461 1 0 ack 40 ------- 1 3.0 0.0 26 58
+ 0.813461 0 1 tcp 1040 ------- 1 0.0 3.0 46 78
- 0.813461 0 1 tcp 1040 ------- 1 0.0 3.0 46 78
r 0.815467 1 2 tcp 1040 ------- 1 0.0 3.0 34 62
+ 0.815467 2 3 tcp 1040 ------- 1 0.0 3.0 34 62
- 0.815467 2 3 tcp 1040 ------- 1 0.0 3.0 34 62
r 0.815616 2 1 ack 40 ------- 1 3.0 0.0 30 70
+ 0.815616 1 0 ack 40 ------- 1 3.0 0.0 30 70
- 0.815616 1 0 ack 40 ------- 1 3.0 0.0 30 70
r 0.817653 0 1 tcp 1040 ------- 1 0.0 3.0 43 75
+ 0.817653 1 2 tcp 1040 ------- 1 0.0 3.0 43 75
- 0.817653 1 2 tcp 1040 ------- 1 0.0 3.0 39 69
r 0.819008 1 0 ack 40 ------- 1 3.0 0.0 27 61
+ 0.819008 0 1 tcp 1040 ------- 1 0.0 3.0 47 79
- 0.819008 0 1 tcp 1040 ------- 1 0.0 3.0 47 79
r 0.821013 1 2 tcp 1040 ------- 1 0.0 3.0 35 63