+ 0 0 1 tcp 40 ------- 1 0.0 3.0 0 0
- 0 0 1 tcp 40 ------- 1 0.0 3.0 0 0
r 0.020032 0 1 tcp 40 ------- 1 0.0 3.0 0 0
+ 0.020032 1 2 tcp 40 ------- 1 0.0 3.0 0 0
- 0.020032 1 2 tcp 40 ------- 1 0.0 3.0 0 0
r 0.040245 1 2 tcp 40 ------- 1 0.0 3.0 0 0
+ 0.040245 2 3 tcp 40 ------- 1 0.0 3.0 0 0
- 0.040245 2 3 tcp 40 ------- 1 0.0 3.0 0 0
r 0.060277 2 3 tcp 40 ------- 1 0.0 3.0 0 0
+ 0.060277 3 2 ack 500 ------- 1 3.0 0.0 0 1
- 0.060277 3 2 ack 500 ------- 1 3.0 0.0 0 1
r 0.080677 3 2 ack 500 ------- 1 3.0 0.0 0 1
+ 0.080677 2 1 ack 500 ------- 1 3.0 0.0 0 1
- 0.080677 2 1 ack 500 ------- 1 3.0 0.0 0 1
r 0.103344 2 1 ack 500 ------- 1 3.0 0.0 0 1
+ 0.103344 1 0 ack 500 ------- 1 3.0 0.0 0 1
- 0.103344 1 0 ack 500 ------- 1 3.0 0.0 0 1
r 0.123744 1 0 ack 500 ------- 1 3.0 0.0 0 1
+ 0.123744 0 1 tcp 1040 ------- 1 0.0 3.0 1 2
- 0.123744 0 1 tcp 1040 ------- 1 0.0 3.0 1 2
r 0.144576 0 1 tcp 1040 ------- 1 0.0 3.0 1 2
+ 0.144576 1 2 tcp 1040 ------- 1 0.0 3.0 1 2
- 0.144576 1 2 tcp 1040 ------- 1 0.0 3.0 1 2
r 0.170123 1 2 tcp 1040 ------- 1 0.0 3.0 1 2
+ 0.170123 2 3 tcp 1040 ------- 1 0.0 3.0 1 2
- 0.170123 2 3 tcp 1040 ------- 1 0.0 3.0 1 2
r 0.190955 2 3 tcp 1040 ------- 1 0.0 3.0 1 2
+ 0.190955 3 2 ack 500 ------- 1 3.0 0.0 1 3
- 0.190955 3 2 ack 500 ------- 1 3.0 0.0 1 3
r 0.211355 3 2 ack 500 ------- 1 3.0 0.0 1 3
+ 0.211355 2 1 ack 500 ------- 1 3.0 0.0 1 3
- 0.211355 2 1 ack 500 ------- 1 3.0 0.0 1 3
r 0.234021 2 1 ack 500 ------- 1 3.0 0.0 1 3
+ 0.234021 1 0 ack 500 ------- 1 3.0 0.0 1 3
- 0.234021 1 0 ack 500 ------- 1 3.0 0.0 1 3
r 0.254421 1 0 ack 500 ------- 1 3.0 0.0 1 3
+ 0.254421 0 1 tcp 1040 ------- 1 0.0 3.0 2 4
- 0.254421 0 1 tcp 1040 ------- 1 0.0 3.0 2 4
+ 0.254421 0 1 tcp 1040 ------- 1 0.0 3.0 3 5
- 0.255253 0 1 tcp 1040 ------- 1 0.0 3.0 3 5
r 0.275253 0 1 tcp 1040 ------- 1 0.0 3.0 2 4
+ 0.275253 1 2 tcp 1040 ------- 1 0.0 3.0 2 4
- 0.275253 1 2 tcp 1040 ------- 1 0.0 3.0 2 4
r 0.276085 0 1 tcp 1040 ------- 1 0.0 3.0 3 5
+ 0.276085 1 2 tcp 1040 ------- 1 0.0 3.0 3 5
- 0.2808 1 2 tcp 1040 ------- 1 0.0 3.0 3 5
r 0.3008 1 2 tcp 1040 ------- 1 0.0 3.0 2 4
+ 0.3008 2 3 tcp 1040 ------- 1 0.0 3.0 2 4
- 0.3008 2 3 tcp 1040 ------- 1 0.0 3.0 2 4
r 0.306347 1 2 tcp 1040 ------- 1 0.0 3.0 3 5
+ 0.306347 2 3 tcp 1040 ------- 1 0.0 3.0 3 5
- 0.306347 2 3 tcp 1040 ------- 1 0.0 3.0 3 5
r 0.321632 2 3 tcp 1040 ------- 1 0.0 3.0 2 4
+ 0.321632 3 2 ack 500 ------- 1 3.0 0.0 2 6
- 0.321632 3 2 ack 500 ------- 1 3.0 0.0 2 6
r 0.327179 2 3 tcp 1040 ------- 1 0.0 3.0 3 5
+ 0.327179 3 2 ack 500 ------- 1 3.0 0.0 3 7
- 0.327179 3 2 ack 500 ------- 1 3.0 0.0 3 7
r 0.342032 3 2 ack 500 ------- 1 3.0 0.0 2 6
+ 0.342032 2 1 ack 500 ------- 1 3.0 0.0 2 6
- 0.342032 2 1 ack 500 ------- 1 3.0 0.0 2 6
r 0.347579 3 2 ack 500 ------- 1 3.0 0.0 3 7
+ 0.347579 2 1 ack 500 ------- 1 3.0 0.0 3 7
- 0.347579 2 1 ack 500 ------- 1 3.0 0.0 3 7
r 0.364699 2 1 ack 500 ------- 1 3.0 0.0 2 6
+ 0.364699 1 0 ack 500 ------- 1 3.0 0.0 2 6
- 0.364699 1 0 ack 500 ------- 1 3.0 0.0 2 6
r 0.370245 2 1 ack 500 ------- 1 3.0 0.0 3 7
+ 0.370245 1 0 ack 500 ------- 1 3.0 0.0 3 7
- 0.370245 1 0 ack 500 ------- 1 3.0 0.0 3 7
r 0.385099 1 0 ack 500 ------- 1 3.0 0.0 2 6
+ 0.385099 0 1 tcp 1040 ------- 1 0.0 3.0 4 8
- 0.385099 0 1 tcp 1040 ------- 1 0.0 3.0 4 8
+ 0.385099 0 1 tcp 1040 ------- 1 0.0 3.0 5 9
- 0.385931 0 1 tcp 1040 ------- 1 0.0 3.0 5 9
r 0.390645 1 0 ack 500 ------- 1 3.0 0.0 3 7
+ 0.390645 0 1 tcp 1040 ------- 1 0.0 3.0 6 10
- 0.390645 0 1 tcp 1040 ------- 1 0.0 3.0 6 10
+ 0.390645 0 1 tcp 1040 ------- 1 0.0 3.0 7 11
- 0.391477 0 1 tcp 1040 ------- 1 0.0 3.0 7 11
r 0.405931 0 1 tcp 1040 ------- 1 0.0 3.0 4 8
+ 0.405931 1 2 tcp 1040 ------- 1 0.0 3.0 4 8
- 0.405931 1 2 tcp 1040 ------- 1 0.0 3.0 4 8
r 0.406763 0 1 tcp 1040 ------- 1 0.0 3.0 5 9
+ 0.406763 1 2 tcp 1040 ------- 1 0.0 3.0 5 9
- 0.411477 1 2 tcp 1040 ------- 1 0.0 3.0 5 9
r 0.411477 0 1 tcp 1040 ------- 1 0.0 3.0 6 10
+ 0.411477 1 2 tcp 1040 ------- 1 0.0 3.0 6 10
r 0.412309 0 1 tcp 1040 ------- 1 0.0 3.0 7 11
+ 0.412309 1 2 tcp 1040 ------- 1 0.0 3.0 7 11
- 0.417024 1 2 tcp 1040 ------- 1 0.0 3.0 6 10
- 0.422571 1 2 tcp 1040 ------- 1 0.0 3.0 7 11
r 0.431477 1 2 tcp 1040 ------- 1 0.0 3.0 4 8
+ 0.431477 2 3 tcp 1040 ------- 1 0.0 3.0 4 8
- 0.431477 2 3 tcp 1040 ------- 1 0.0 3.0 4 8
r 0.437024 1 2 tcp 1040 ------- 1 0.0 3.0 5 9
+ 0.437024 2 3 tcp 1040 ------- 1 0.0 3.0 5 9
- 0.437024 2 3 tcp 1040 ------- 1 0.0 3.0 5 9
r 0.442571 1 2 tcp 1040 ------- 1 0.0 3.0 6 10
+ 0.442571 2 3 tcp 1040 ------- 1 0.0 3.0 6 10
- 0.442571 2 3 tcp 1040 ------- 1 0.0 3.0 6 10
r 0.448117 1 2 tcp 1040 ------- 1 0.0 3.0 7 11
+ 0.448117 2 3 tcp 1040 ------- 1 0.0 3.0 7 11
- 0.448117 2 3 tcp 1040 ------- 1 0.0 3.0 7 11
r 0.452309 2 3 tcp 1040 ------- 1 0.0 3.0 4 8
+ 0.452309 3 2 ack 500 ------- 1 3.0 0.0 4 12
- 0.452309 3 2 ack 500 ------- 1 3.0 0.0 4 12
r 0.457856 2 3 tcp 1040 ------- 1 0.0 3.0 5 9
+ 0.457856 3 2 ack 500 ------- 1 3.0 0.0 5 13
- 0.457856 3 2 ack 500 ------- 1 3.0 0.0 5 13
r 0.463403 2 3 tcp 1040 ------- 1 0.0 3.0 6 10
+ 0.463403 3 2 ack 500 ------- 1 3.0 0.0 6 14
- 0.463403 3 2 ack 500 ------- 1 3.0 0.0 6 14
r 0.468949 2 3 tcp 1040 ------- 1 0.0 3.0 7 11
+ 0.468949 3 2 ack 500 ------- 1 3.0 0.0 7 15
- 0.468949 3 2 ack 500 ------- 1 3.0 0.0 7 15
r 0.472709 3 2 ack 500 ------- 1 3.0 0.0 4 12
+ 0.472709 2 1 ack 500 ------- 1 3.0 0.0 4 12
- 0.472709 2 1 ack 500 ------- 1 3.0 0.0 4 12
r 0.478256 3 2 ack 500 ------- 1 3.0 0.0 5 13
+ 0.478256 2 1 ack 500 ------- 1 3.0 0.0 5 13
- 0.478256 2 1 ack 500 ------- 1 3.0 0.0 5 13
r 0.483803 3 2 ack 500 ------- 1 3.0 0.0 6 14
+ 0.483803 2 1 ack 500 ------- 1 3.0 0.0 6 14
- 0.483803 2 1 ack 500 ------- 1 3.0 0.0 6 14
r 0.489349 3 2 ack 500 ------- 1 3.0 0.0 7 15
+ 0.489349 2 1 ack 500 ------- 1 3.0 0.0 7 15
- 0.489349 2 1 ack 500 ------- 1 3.0 0.0 7 15
r 0.495376 2 1 ack 500 ------- 1 3.0 0.0 4 12
+ 0.495376 1 0 ack 500 ------- 1 3.0 0.0 4 12
- 0.495376 1 0 ack 500 ------- 1 3.0 0.0 4 12
r 0.500923 2 1 ack 500 ------- 1 3.0 0.0 5 13
+ 0.500923 1 0 ack 500 ------- 1 3.0 0.0 5 13
- 0.500923 1 0 ack 500 ------- 1 3.0 0.0 5 13
r 0.506469 2 1 ack 500 ------- 1 3.0 0.0 6 14
+ 0.506469 1 0 ack 500 ------- 1 3.0 0.0 6 14
- 0.506469 1 0 ack 500 ------- 1 3.0 0.0 6 14
r 0.512016 2 1 ack 500 ------- 1 3.0 0.0 7 15
+ 0.512016 1 0 ack 500 ------- 1 3.0 0.0 7 15
- 0.512016 1 0 ack 500 ------- 1 3.0 0.0 7 15
r 0.515776 1 0 ack 500 ------- 1 3.0 0.0 4 12
+ 0.515776 0 1 tcp 1040 ------- 1 0.0 3.0 8 16
- 0.515776 0 1 tcp 1040 ------- 1 0.0 3.0 8 16
+ 0.515776 0 1 tcp 1040 ------- 1 0.0 3.0 9 17
- 0.516608 0 1 tcp 1040 ------- 1 0.0 3.0 9 17
r 0.521323 1 0 ack 500 ------- 1 3.0 0.0 5 13
+ 0.521323 0 1 tcp 1040 ------- 1 0.0 3.0 10 18
- 0.521323 0 1 tcp 1040 ------- 1 0.0 3.0 10 18
+ 0.521323 0 1 tcp 1040 ------- 1 0.0 3.0 11 19
- 0.522155 0 1 tcp 1040 ------- 1 0.0 3.0 11 19
r 0.526869 1 0 ack 500 ------- 1 3.0 0.0 6 14
+ 0.526869 0 1 tcp 1040 ------- 1 0.0 3.0 12 20
- 0.526869 0 1 tcp 1040 ------- 1 0.0 3.0 12 20
+ 0.526869 0 1 tcp 1040 ------- 1 0.0 3.0 13 21
- 0.527701 0 1 tcp 1040 ------- 1 0.0 3.0 13 21
r 0.532416 1 0 ack 500 ------- 1 3.0 0.0 7 15
+ 0.532416 0 1 tcp 1040 ------- 1 0.0 3.0 14 22
- 0.532416 0 1 tcp 1040 ------- 1 0.0 3.0 14 22
+ 0.532416 0 1 tcp 1040 ------- 1 0.0 3.0 15 23
- 0.533248 0 1 tcp 1040 ------- 1 0.0 3.0 15 23
r 0.536608 0 1 tcp 1040 ------- 1 0.0 3.0 8 16
+ 0.536608 1 2 tcp 1040 ------- 1 0.0 3.0 8 16
- 0.536608 1 2 tcp 1040 ------- 1 0.0 3.0 8 16
r 0.53744 0 1 tcp 1040 ------- 1 0.0 3.0 9 17
+ 0.53744 1 2 tcp 1040 ------- 1 0.0 3.0 9 17
r 0.542155 0 1 tcp 1040 ------- 1 0.0 3.0 10 18
+ 0.542155 1 2 tcp 1040 ------- 1 0.0 3.0 10 18
- 0.542155 1 2 tcp 1040 ------- 1 0.0 3.0 9 17
r 0.542987 0 1 tcp 1040 ------- 1 0.0 3.0 11 19
+ 0.542987 1 2 tcp 1040 ------- 1 0.0 3.0 11 19
r 0.547701 0 1 tcp 1040 ------- 1 0.0 3.0 12 20
+ 0.547701 1 2 tcp 1040 ------- 1 0.0 3.0 12 20
- 0.547701 1 2 tcp 1040 ------- 1 0.0 3.0 10 18
r 0.548533 0 1 tcp 1040 ------- 1 0.0 3.0 13 21
+ 0.548533 1 2 tcp 1040 ------- 1 0.0 3.0 13 21
r 0.553248 0 1 tcp 1040 ------- 1 0.0 3.0 14 22
+ 0.553248 1 2 tcp 1040 ------- 1 0.0 3.0 14 22
- 0.553248 1 2 tcp 1040 ------- 1 0.0 3.0 11 19
r 0.55408 0 1 tcp 1040 ------- 1 0.0 3.0 15 23
+ 0.55408 1 2 tcp 1040 ------- 1 0.0 3.0 15 23
- 0.558795 1 2 tcp 1040 ------- 1 0.0 3.0 12 20
r 0.562155 1 2 tcp 1040 ------- 1 0.0 3.0 8 16
+ 0.562155 2 3 tcp 1040 ------- 1 0.0 3.0 8 16
- 0.562155 2 3 tcp 1040 ------- 1 0.0 3.0 8 16
- 0.564341 1 2 tcp 1040 ------- 1 0.0 3.0 13 21
r 0.567701 1 2 tcp 1040 ------- 1 0.0 3.0 9 17
+ 0.567701 2 3 tcp 1040 ------- 1 0.0 3.0 9 17
- 0.567701 2 3 tcp 1040 ------- 1 0.0 3.0 9 17
- 0.569888 1 2 tcp 1040 ------- 1 0.0 3.0 14 22
r 0.573248 1 2 tcp 1040 ------- 1 0.0 3.0 10 18
+ 0.573248 2 3 tcp 1040 ------- 1 0.0 3.0 10 18
- 0.573248 2 3 tcp 1040 ------- 1 0.0 3.0 10 18
- 0.575435 1 2 tcp 1040 ------- 1 0.0 3.0 15 23
r 0.578795 1 2 tcp 1040 ------- 1 0.0 3.0 11 19
+ 0.578795 2 3 tcp 1040 ------- 1 0.0 3.0 11 19
- 0.578795 2 3 tcp 1040 ------- 1 0.0 3.0 11 19
r 0.582987 2 3 tcp 1040 ------- 1 0.0 3.0 8 16
+ 0.582987 3 2 ack 500 ------- 1 3.0 0.0 8 24
- 0.582987 3 2 ack 500 ------- 1 3.0 0.0 8 24
r 0.584341 1 2 tcp 1040 ------- 1 0.0 3.0 12 20
+ 0.584341 2 3 tcp 1040 ------- 1 0.0 3.0 12 20
- 0.584341 2 3 tcp 1040 ------- 1 0.0 3.0 12 20
r 0.588533 2 3 tcp 1040 ------- 1 0.0 3.0 9 17
+ 0.588533 3 2 ack 500 ------- 1 3.0 0.0 9 25
- 0.588533 3 2 ack 500 ------- 1 3.0 0.0 9 25
r 0.589888 1 2 tcp 1040 ------- 1 0.0 3.0 13 21
+ 0.589888 2 3 tcp 1040 ------- 1 0.0 3.0 13 21
- 0.589888 2 3 tcp 1040 ------- 1 0.0 3.0 13 21
r 0.59408 2 3 tcp 1040 ------- 1 0.0 3.0 10 18
+ 0.59408 3 2 ack 500 ------- 1 3.0 0.0 10 26
- 0.59408 3 2 ack 500 ------- 1 3.0 0.0 10 26
r 0.595435 1 2 tcp 1040 ------- 1 0.0 3.0 14 22
+ 0.595435 2 3 tcp 1040 ------- 1 0.0 3.0 14 22
- 0.595435 2 3 tcp 1040 ------- 1 0.0 3.0 14 22
r 0.599627 2 3 tcp 1040 ------- 1 0.0 3.0 11 19
+ 0.599627 3 2 ack 500 ------- 1 3.0 0.0 11 27
- 0.599627 3 2 ack 500 ------- 1 3.0 0.0 11 27
r 0.600981 1 2 tcp 1040 ------- 1 0.0 3.0 15 23
+ 0.600981 2 3 tcp 1040 ------- 1 0.0 3.0 15 23
- 0.600981 2 3 tcp 1040 ------- 1 0.0 3.0 15 23
r 0.603387 3 2 ack 500 ------- 1 3.0 0.0 8 24
+ 0.603387 2 1 ack 500 ------- 1 3.0 0.0 8 24
- 0.603387 2 1 ack 500 ------- 1 3.0 0.0 8 24
r 0.605173 2 3 tcp 1040 ------- 1 0.0 3.0 12 20
+ 0.605173 3 2 ack 500 ------- 1 3.0 0.0 12 28
- 0.605173 3 2 ack 500 ------- 1 3.0 0.0 12 28
r 0.608933 3 2 ack 500 ------- 1 3.0 0.0 9 25
+ 0.608933 2 1 ack 500 ------- 1 3.0 0.0 9 25
- 0.608933 2 1 ack 500 ------- 1 3.0 0.0 9 25
r 0.61072 2 3 tcp 1040 ------- 1 0.0 3.0 13 21
+ 0.61072 3 2 ack 500 ------- 1 3.0 0.0 13 29
- 0.61072 3 2 ack 500 ------- 1 3.0 0.0 13 29
r 0.61448 3 2 ack 500 ------- 1 3.0 0.0 10 26
+ 0.61448 2 1 ack 500 ------- 1 3.0 0.0 10 26
- 0.61448 2 1 ack 500 ------- 1 3.0 0.0 10 26
r 0.616267 2 3 tcp 1040 ------- 1 0.0 3.0 14 22
+ 0.616267 3 2 ack 500 ------- 1 3.0 0.0 14 30
- 0.616267 3 2 ack 500 ------- 1 3.0 0.0 14 30
r 0.620027 3 2 ack 500 ------- 1 3.0 0.0 11 27
+ 0.620027 2 1 ack 500 ------- 1 3.0 0.0 11 27
- 0.620027 2 1 ack 500 ------- 1 3.0 0.0 11 27
r 0.621813 2 3 tcp 1040 ------- 1 0.0 3.0 15 23
+ 0.621813 3 2 ack 500 ------- 1 3.0 0.0 15 31
- 0.621813 3 2 ack 500 ------- 1 3.0 0.0 15 31
r 0.625573 3 2 ack 500 ------- 1 3.0 0.0 12 28
+ 0.625573 2 1 ack 500 ------- 1 3.0 0.0 12 28
- 0.625573 2 1 ack 500 ------- 1 3.0 0.0 12 28
r 0.626053 2 1 ack 500 ------- 1 3.0 0.0 8 24
+ 0.626053 1 0 ack 500 ------- 1 3.0 0.0 8 24
- 0.626053 1 0 ack 500 ------- 1 3.0 0.0 8 24
r 0.63112 3 2 ack 500 ------- 1 3.0 0.0 13 29
+ 0.63112 2 1 ack 500 ------- 1 3.0 0.0 13 29
- 0.63112 2 1 ack 500 ------- 1 3.0 0.0 13 29
r 0.6316 2 1 ack 500 ------- 1 3.0 0.0 9 25
+ 0.6316 1 0 ack 500 ------- 1 3.0 0.0 9 25
- 0.6316 1 0 ack 500 ------- 1 3.0 0.0 9 25
r 0.636667 3 2 ack 500 ------- 1 3.0 0.0 14 30
+ 0.636667 2 1 ack 500 ------- 1 3.0 0.0 14 30
- 0.636667 2 1 ack 500 ------- 1 3.0 0.0 14 30
r 0.637147 2 1 ack 500 ------- 1 3.0 0.0 10 26
+ 0.637147 1 0 ack 500 ------- 1 3.0 0.0 10 26
- 0.637147 1 0 ack 500 ------- 1 3.0 0.0 10 26
r 0.642213 3 2 ack 500 ------- 1 3.0 0.0 15 31
+ 0.642213 2 1 ack 500 ------- 1 3.0 0.0 15 31
- 0.642213 2 1 ack 500 ------- 1 3.0 0.0 15 31
r 0.642693 2 1 ack 500 ------- 1 3.0 0.0 11 27
+ 0.642693 1 0 ack 500 ------- 1 3.0 0.0 11 27
- 0.642693 1 0 ack 500 ------- 1 3.0 0.0 11 27
r 0.646453 1 0 ack 500 ------- 1 3.0 0.0 8 24
+ 0.646453 0 1 tcp 1040 ------- 1 0.0 3.0 16 32
- 0.646453 0 1 tcp 1040 ------- 1 0.0 3.0 16 32
+ 0.646453 0 1 tcp 1040 ------- 1 0.0 3.0 17 33
- 0.647285 0 1 tcp 1040 ------- 1 0.0 3.0 17 33
r 0.64824 2 1 ack 500 ------- 1 3.0 0.0 12 28
+ 0.64824 1 0 ack 500 ------- 1 3.0 0.0 12 28
- 0.64824 1 0 ack 500 ------- 1 3.0 0.0 12 28
r 0.652 1 0 ack 500 ------- 1 3.0 0.0 9 25
+ 0.652 0 1 tcp 1040 ------- 1 0.0 3.0 18 34
- 0.652 0 1 tcp 1040 ------- 1 0.0 3.0 18 34
+ 0.652 0 1 tcp 1040 ------- 1 0.0 3.0 19 35
- 0.652832 0 1 tcp 1040 ------- 1 0.0 3.0 19 35
r 0.653787 2 1 ack 500 ------- 1 3.0 0.0 13 29
+ 0.653787 1 0 ack 500 ------- 1 3.0 0.0 13 29
- 0.653787 1 0 ack 500 ------- 1 3.0 0.0 13 29
r 0.657547 1 0 ack 500 ------- 1 3.0 0.0 10 26
+ 0.657547 0 1 tcp 1040 ------- 1 0.0 3.0 20 36
- 0.657547 0 1 tcp 1040 ------- 1 0.0 3.0 20 36
+ 0.657547 0 1 tcp 1040 ------- 1 0.0 3.0 21 37
- 0.658379 0 1 tcp 1040 ------- 1 0.0 3.0 21 37
r 0.659333 2 1 ack 500 ------- 1 3.0 0.0 14 30
+ 0.659333 1 0 ack 500 ------- 1 3.0 0.0 14 30
- 0.659333 1 0 ack 500 ------- 1 3.0 0.0 14 30
r 0.663093 1 0 ack 500 ------- 1 3.0 0.0 11 27
+ 0.663093 0 1 tcp 1040 ------- 1 0.0 3.0 22 38
- 0.663093 0 1 tcp 1040 ------- 1 0.0 3.0 22 38
+ 0.663093 0 1 tcp 1040 ------- 1 0.0 3.0 23 39
- 0.663925 0 1 tcp 1040 ------- 1 0.0 3.0 23 39
r 0.66488 2 1 ack 500 ------- 1 3.0 0.0 15 31
+ 0.66488 1 0 ack 500 ------- 1 3.0 0.0 15 31
- 0.66488 1 0 ack 500 ------- 1 3.0 0.0 15 31
r 0.667285 0 1 tcp 1040 ------- 1 0.0 3.0 16 32
+ 0.667285 1 2 tcp 1040 ------- 1 0.0 3.0 16 32
- 0.667285 1 2 tcp 1040 ------- 1 0.0 3.0 16 32
r 0.668117 0 1 tcp 1040 ------- 1 0.0 3.0 17 33
+ 0.668117 1 2 tcp 1040 ------- 1 0.0 3.0 17 33
r 0.66864 1 0 ack 500 ------- 1 3.0 0.0 12 28
+ 0.66864 0 1 tcp 1040 ------- 1 0.0 3.0 24 40
- 0.66864 0 1 tcp 1040 ------- 1 0.0 3.0 24 40
+ 0.66864 0 1 tcp 1040 ------- 1 0.0 3.0 25 41
- 0.669472 0 1 tcp 1040 ------- 1 0.0 3.0 25 41
- 0.672832 1 2 tcp 1040 ------- 1 0.0 3.0 17 33
r 0.672832 0 1 tcp 1040 ------- 1 0.0 3.0 18 34
+ 0.672832 1 2 tcp 1040 ------- 1 0.0 3.0 18 34
r 0.673664 0 1 tcp 1040 ------- 1 0.0 3.0 19 35
+ 0.673664 1 2 tcp 1040 ------- 1 0.0 3.0 19 35
r 0.674187 1 0 ack 500 ------- 1 3.0 0.0 13 29
+ 0.674187 0 1 tcp 1040 ------- 1 0.0 3.0 26 42
- 0.674187 0 1 tcp 1040 ------- 1 0.0 3.0 26 42
+ 0.674187 0 1 tcp 1040 ------- 1 0.0 3.0 27 43
- 0.675019 0 1 tcp 1040 ------- 1 0.0 3.0 27 43
r 0.678379 0 1 tcp 1040 ------- 1 0.0 3.0 20 36
+ 0.678379 1 2 tcp 1040 ------- 1 0.0 3.0 20 36
- 0.678379 1 2 tcp 1040 ------- 1 0.0 3.0 18 34
r 0.679211 0 1 tcp 1040 ------- 1 0.0 3.0 21 37
+ 0.679211 1 2 tcp 1040 ------- 1 0.0 3.0 21 37
r 0.679733 1 0 ack 500 ------- 1 3.0 0.0 14 30
+ 0.679733 0 1 tcp 1040 ------- 1 0.0 3.0 28 44
- 0.679733 0 1 tcp 1040 ------- 1 0.0 3.0 28 44
+ 0.679733 0 1 tcp 1040 ------- 1 0.0 3.0 29 45
- 0.680565 0 1 tcp 1040 ------- 1 0.0 3.0 29 45
- 0.683925 1 2 tcp 1040 ------- 1 0.0 3.0 19 35
r 0.683925 0 1 tcp 1040 ------- 1 0.0 3.0 22 38
+ 0.683925 1 2 tcp 1040 ------- 1 0.0 3.0 22 38
r 0.684757 0 1 tcp 1040 ------- 1 0.0 3.0 23 39
+ 0.684757 1 2 tcp 1040 ------- 1 0.0 3.0 23 39
r 0.68528 1 0 ack 500 ------- 1 3.0 0.0 15 31
+ 0.68528 0 1 tcp 1040 ------- 1 0.0 3.0 30 46
- 0.68528 0 1 tcp 1040 ------- 1 0.0 3.0 30 46
+ 0.68528 0 1 tcp 1040 ------- 1 0.0 3.0 31 47
- 0.686112 0 1 tcp 1040 ------- 1 0.0 3.0 31 47
r 0.689472 0 1 tcp 1040 ------- 1 0.0 3.0 24 40
+ 0.689472 1 2 tcp 1040 ------- 1 0.0 3.0 24 40
- 0.689472 1 2 tcp 1040 ------- 1 0.0 3.0 20 36
r 0.690304 0 1 tcp 1040 ------- 1 0.0 3.0 25 41
+ 0.690304 1 2 tcp 1040 ------- 1 0.0 3.0 25 41
r 0.692832 1 2 tcp 1040 ------- 1 0.0 3.0 16 32
+ 0.692832 2 3 tcp 1040 ------- 1 0.0 3.0 16 32
- 0.692832 2 3 tcp 1040 ------- 1 0.0 3.0 16 32
- 0.695019 1 2 tcp 1040 ------- 1 0.0 3.0 21 37
r 0.695019 0 1 tcp 1040 ------- 1 0.0 3.0 26 42
+ 0.695019 1 2 tcp 1040 ------- 1 0.0 3.0 26 42
r 0.695851 0 1 tcp 1040 ------- 1 0.0 3.0 27 43
+ 0.695851 1 2 tcp 1040 ------- 1 0.0 3.0 27 43
r 0.698379 1 2 tcp 1040 ------- 1 0.0 3.0 17 33
+ 0.698379 2 3 tcp 1040 ------- 1 0.0 3.0 17 33
- 0.698379 2 3 tcp 1040 ------- 1 0.0 3.0 17 33
r 0.700565 0 1 tcp 1040 ------- 1 0.0 3.0 28 44
+ 0.700565 1 2 tcp 1040 ------- 1 0.0 3.0 28 44
- 0.700565 1 2 tcp 1040 ------- 1 0.0 3.0 22 38
r 0.701397 0 1 tcp 1040 ------- 1 0.0 3.0 29 45
+ 0.701397 1 2 tcp 1040 ------- 1 0.0 3.0 29 45
r 0.703925 1 2 tcp 1040 ------- 1 0.0 3.0 18 34
+ 0.703925 2 3 tcp 1040 ------- 1 0.0 3.0 18 34
- 0.703925 2 3 tcp 1040 ------- 1 0.0 3.0 18 34
- 0.706112 1 2 tcp 1040 ------- 1 0.0 3.0 23 39
r 0.706112 0 1 tcp 1040 ------- 1 0.0 3.0 30 46
+ 0.706112 1 2 tcp 1040 ------- 1 0.0 3.0 30 46
r 0.706944 0 1 tcp 1040 ------- 1 0.0 3.0 31 47
+ 0.706944 1 2 tcp 1040 ------- 1 0.0 3.0 31 47
r 0.709472 1 2 tcp 1040 ------- 1 0.0 3.0 19 35
+ 0.709472 2 3 tcp 1040 ------- 1 0.0 3.0 19 35
- 0.709472 2 3 tcp 1040 ------- 1 0.0 3.0 19 35
- 0.711659 1 2 tcp 1040 ------- 1 0.0 3.0 24 40
r 0.713664 2 3 tcp 1040 ------- 1 0.0 3.0 16 32
+ 0.713664 3 2 ack 500 ------- 1 3.0 0.0 16 48
- 0.713664 3 2 ack 500 ------- 1 3.0 0.0 16 48
r 0.715019 1 2 tcp 1040 ------- 1 0.0 3.0 20 36
+ 0.715019 2 3 tcp 1040 ------- 1 0.0 3.0 20 36
- 0.715019 2 3 tcp 1040 ------- 1 0.0 3.0 20 36
- 0.717205 1 2 tcp 1040 ------- 1 0.0 3.0 25 41
r 0.719211 2 3 tcp 1040 ------- 1 0.0 3.0 17 33
+ 0.719211 3 2 ack 500 ------- 1 3.0 0.0 17 49
- 0.719211 3 2 ack 500 ------- 1 3.0 0.0 17 49
r 0.720565 1 2 tcp 1040 ------- 1 0.0 3.0 21 37
+ 0.720565 2 3 tcp 1040 ------- 1 0.0 3.0 21 37
- 0.720565 2 3 tcp 1040 ------- 1 0.0 3.0 21 37
- 0.722752 1 2 tcp 1040 ------- 1 0.0 3.0 26 42
r 0.724757 2 3 tcp 1040 ------- 1 0.0 3.0 18 34
+ 0.724757 3 2 ack 500 ------- 1 3.0 0.0 18 50
- 0.724757 3 2 ack 500 ------- 1 3.0 0.0 18 50
r 0.726112 1 2 tcp 1040 ------- 1 0.0 3.0 22 38
+ 0.726112 2 3 tcp 1040 ------- 1 0.0 3.0 22 38
- 0.726112 2 3 tcp 1040 ------- 1 0.0 3.0 22 38
- 0.728299 1 2 tcp 1040 ------- 1 0.0 3.0 27 43
r 0.730304 2 3 tcp 1040 ------- 1 0.0 3.0 19 35
+ 0.730304 3 2 ack 500 ------- 1 3.0 0.0 19 51
- 0.730304 3 2 ack 500 ------- 1 3.0 0.0 19 51
r 0.731659 1 2 tcp 1040 ------- 1 0.0 3.0 23 39
+ 0.731659 2 3 tcp 1040 ------- 1 0.0 3.0 23 39
- 0.731659 2 3 tcp 1040 ------- 1 0.0 3.0 23 39
- 0.733845 1 2 tcp 1040 ------- 1 0.0 3.0 28 44
r 0.734064 3 2 ack 500 ------- 1 3.0 0.0 16 48
+ 0.734064 2 1 ack 500 ------- 1 3.0 0.0 16 48
- 0.734064 2 1 ack 500 ------- 1 3.0 0.0 16 48
r 0.735851 2 3 tcp 1040 ------- 1 0.0 3.0 20 36
+ 0.735851 3 2 ack 500 ------- 1 3.0 0.0 20 52
- 0.735851 3 2 ack 500 ------- 1 3.0 0.0 20 52
r 0.737205 1 2 tcp 1040 ------- 1 0.0 3.0 24 40
+ 0.737205 2 3 tcp 1040 ------- 1 0.0 3.0 24 40
- 0.737205 2 3 tcp 1040 ------- 1 0.0 3.0 24 40
- 0.739392 1 2 tcp 1040 ------- 1 0.0 3.0 29 45
r 0.739611 3 2 ack 500 ------- 1 3.0 0.0 17 49
+ 0.739611 2 1 ack 500 ------- 1 3.0 0.0 17 49
- 0.739611 2 1 ack 500 ------- 1 3.0 0.0 17 49
r 0.741397 2 3 tcp 1040 ------- 1 0.0 3.0 21 37
+ 0.741397 3 2 ack 500 ------- 1 3.0 0.0 21 53
- 0.741397 3 2 ack 500 ------- 1 3.0 0.0 21 53
r 0.742752 1 2 tcp 1040 ------- 1 0.0 3.0 25 41
+ 0.742752 2 3 tcp 1040 ------- 1 0.0 3.0 25 41
- 0.742752 2 3 tcp 1040 ------- 1 0.0 3.0 25 41
- 0.744939 1 2 tcp 1040 ------- 1 0.0 3.0 30 46
r 0.745157 3 2 ack 500 ------- 1 3.0 0.0 18 50
+ 0.745157 2 1 ack 500 ------- 1 3.0 0.0 18 50
- 0.745157 2 1 ack 500 ------- 1 3.0 0.0 18 50
r 0.746944 2 3 tcp 1040 ------- 1 0.0 3.0 22 38
+ 0.746944 3 2 ack 500 ------- 1 3.0 0.0 22 54
- 0.746944 3 2 ack 500 ------- 1 3.0 0.0 22 54
r 0.748299 1 2 tcp 1040 ------- 1 0.0 3.0 26 42
+ 0.748299 2 3 tcp 1040 ------- 1 0.0 3.0 26 42
- 0.748299 2 3 tcp 1040 ------- 1 0.0 3.0 26 42
- 0.750485 1 2 tcp 1040 ------- 1 0.0 3.0 31 47
r 0.750704 3 2 ack 500 ------- 1 3.0 0.0 19 51
+ 0.750704 2 1 ack 500 ------- 1 3.0 0.0 19 51
- 0.750704 2 1 ack 500 ------- 1 3.0 0.0 19 51
r 0.752491 2 3 tcp 1040 ------- 1 0.0 3.0 23 39
+ 0.752491 3 2 ack 500 ------- 1 3.0 0.0 23 55
- 0.752491 3 2 ack 500 ------- 1 3.0 0.0 23 55
r 0.753845 1 2 tcp 1040 ------- 1 0.0 3.0 27 43
+ 0.753845 2 3 tcp 1040 ------- 1 0.0 3.0 27 43
- 0.753845 2 3 tcp 1040 ------- 1 0.0 3.0 27 43
r 0.756251 3 2 ack 500 ------- 1 3.0 0.0 20 52
+ 0.756251 2 1 ack 500 ------- 1 3.0 0.0 20 52
- 0.756251 2 1 ack 500 ------- 1 3.0 0.0 20 52
r 0.756731 2 1 ack 500 ------- 1 3.0 0.0 16 48
+ 0.756731 1 0 ack 500 ------- 1 3.0 0.0 16 48
- 0.756731 1 0 ack 500 ------- 1 3.0 0.0 16 48
r 0.758037 2 3 tcp 1040 ------- 1 0.0 3.0 24 40
+ 0.758037 3 2 ack 500 ------- 1 3.0 0.0 24 56
- 0.758037 3 2 ack 500 ------- 1 3.0 0.0 24 56
r 0.759392 1 2 tcp 1040 ------- 1 0.0 3.0 28 44
+ 0.759392 2 3 tcp 1040 ------- 1 0.0 3.0 28 44
- 0.759392 2 3 tcp 1040 ------- 1 0.0 3.0 28 44
r 0.761797 3 2 ack 500 ------- 1 3.0 0.0 21 53
+ 0.761797 2 1 ack 500 ------- 1 3.0 0.0 21 53
- 0.761797 2 1 ack 500 ------- 1 3.0 0.0 21 53
r 0.762277 2 1 ack 500 ------- 1 3.0 0.0 17 49
+ 0.762277 1 0 ack 500 ------- 1 3.0 0.0 17 49
- 0.762277 1 0 ack 500 ------- 1 3.0 0.0 17 49
r 0.763584 2 3 tcp 1040 ------- 1 0.0 3.0 25 41
+ 0.763584 3 2 ack 500 ------- 1 3.0 0.0 25 57
- 0.763584 3 2 ack 500 ------- 1 3.0 0.0 25 57
r 0.764939 1 2 tcp 1040 ------- 1 0.0 3.0 29 45
+ 0.764939 2 3 tcp 1040 ------- 1 0.0 3.0 29 45
- 0.764939 2 3 tcp 1040 ------- 1 0.0 3.0 29 45
r 0.767344 3 2 ack 500 ------- 1 3.0 0.0 22 54
+ 0.767344 2 1 ack 500 ------- 1 3.0 0.0 22 54
- 0.767344 2 1 ack 500 ------- 1 3.0 0.0 22 54
r 0.767824 2 1 ack 500 ------- 1 3.0 0.0 18 50
+ 0.767824 1 0 ack 500 ------- 1 3.0 0.0 18 50
- 0.767824 1 0 ack 500 ------- 1 3.0 0.0 18 50
r 0.769131 2 3 tcp 1040 ------- 1 0.0 3.0 26 42
+ 0.769131 3 2 ack 500 ------- 1 3.0 0.0 26 58
- 0.769131 3 2 ack 500 ------- 1 3.0 0.0 26 58
r 0.770485 1 2 tcp 1040 ------- 1 0.0 3.0 30 46
+ 0.770485 2 3 tcp 1040 ------- 1 0.0 3.0 30 46
- 0.770485 2 3 tcp 1040 ------- 1 0.0 3.0 30 46
r 0.772891 3 2 ack 500 ------- 1 3.0 0.0 23 55
+ 0.772891 2 1 ack 500 ------- 1 3.0 0.0 23 55
- 0.772891 2 1 ack 500 ------- 1 3.0 0.0 23 55
r 0.773371 2 1 ack 500 ------- 1 3.0 0.0 19 51
+ 0.773371 1 0 ack 500 ------- 1 3.0 0.0 19 51
- 0.773371 1 0 ack 500 ------- 1 3.0 0.0 19 51
r 0.774677 2 3 tcp 1040 ------- 1 0.0 3.0 27 43
+ 0.774677 3 2 ack 500 ------- 1 3.0 0.0 27 59
- 0.774677 3 2 ack 500 ------- 1 3.0 0.0 27 59
r 0.776032 1 2 tcp 1040 ------- 1 0.0 3.0 31 47
+ 0.776032 2 3 tcp 1040 ------- 1 0.0 3.0 31 47
- 0.776032 2 3 tcp 1040 ------- 1 0.0 3.0 31 47
r 0.777131 1 0 ack 500 ------- 1 3.0 0.0 16 48
+ 0.777131 0 1 tcp 1040 ------- 1 0.0 3.0 32 60
- 0.777131 0 1 tcp 1040 ------- 1 0.0 3.0 32 60
+ 0.777131 0 1 tcp 1040 ------- 1 0.0 3.0 33 61
- 0.777963 0 1 tcp 1040 ------- 1 0.0 3.0 33 61
r 0.778437 3 2 ack 500 ------- 1 3.0 0.0 24 56
+ 0.778437 2 1 ack 500 ------- 1 3.0 0.0 24 56
- 0.778437 2 1 ack 500 ------- 1 3.0 0.0 24 56
r 0.778917 2 1 ack 500 ------- 1 3.0 0.0 20 52
+ 0.778917 1 0 ack 500 ------- 1 3.0 0.0 20 52
- 0.778917 1 0 ack 500 ------- 1 3.0 0.0 20 52
r 0.780224 2 3 tcp 1040 ------- 1 0.0 3.0 28 44
+ 0.780224 3 2 ack 500 ------- 1 3.0 0.0 28 62
- 0.780224 3 2 ack 500 ------- 1 3.0 0.0 28 62
r 0.782677 1 0 ack 500 ------- 1 3.0 0.0 17 49
+ 0.782677 0 1 tcp 1040 ------- 1 0.0 3.0 34 63
- 0.782677 0 1 tcp 1040 ------- 1 0.0 3.0 34 63
+ 0.782677 0 1 tcp 1040 ------- 1 0.0 3.0 35 64
- 0.783509 0 1 tcp 1040 ------- 1 0.0 3.0 35 64
r 0.783984 3 2 ack 500 ------- 1 3.0 0.0 25 57
+ 0.783984 2 1 ack 500 ------- 1 3.0 0.0 25 57
- 0.783984 2 1 ack 500 ------- 1 3.0 0.0 25 57
r 0.784464 2 1 ack 500 ------- 1 3.0 0.0 21 53
+ 0.784464 1 0 ack 500 ------- 1 3.0 0.0 21 53
- 0.784464 1 0 ack 500 ------- 1 3.0 0.0 21 53
r 0.785771 2 3 tcp 1040 ------- 1 0.0 3.0 29 45
+ 0.785771 3 2 ack 500 ------- 1 3.0 0.0 29 65
- 0.785771 3 2 ack 500 ------- 1 3.0 0.0 29 65
r 0.788224 1 0 ack 500 ------- 1 3.0 0.0 18 50
+ 0.788224 0 1 tcp 1040 ------- 1 0.0 3.0 36 66
- 0.788224 0 1 tcp 1040 ------- 1 0.0 3.0 36 66
+ 0.788224 0 1 tcp 1040 ------- 1 0.0 3.0 37 67
- 0.789056 0 1 tcp 1040 ------- 1 0.0 3.0 37 67
r 0.789531 3 2 ack 500 ------- 1 3.0 0.0 26 58
+ 0.789531 2 1 ack 500 ------- 1 3.0 0.0 26 58
- 0.789531 2 1 ack 500 ------- 1 3.0 0.0 26 58
r 0.790011 2 1 ack 500 ------- 1 3.0 0.0 22 54
+ 0.790011 1 0 ack 500 ------- 1 3.0 0.0 22 54
- 0.790011 1 0 ack 500 ------- 1 3.0 0.0 22 54
r 0.791317 2 3 tcp 1040 ------- 1 0.0 3.0 30 46
+ 0.791317 3 2 ack 500 ------- 1 3.0 0.0 30 68
- 0.791317 3 2 ack 500 ------- 1 3.0 0.0 30 68
r 0.793771 1 0 ack 500 ------- 1 3.0 0.0 19 51
+ 0.793771 0 1 tcp 1040 ------- 1 0.0 3.0 38 69
- 0.793771 0 1 tcp 1040 ------- 1 0.0 3.0 38 69
+ 0.793771 0 1 tcp 1040 ------- 1 0.0 3.0 39 70
- 0.794603 0 1 tcp 1040 ------- 1 0.0 3.0 39 70
r 0.795077 3 2 ack 500 ------- 1 3.0 0.0 27 59
+ 0.795077 2 1 ack 500 ------- 1 3.0 0.0 27 59
- 0.795077 2 1 ack 500 ------- 1 3.0 0.0 27 59
r 0.795557 2 1 ack 500 ------- 1 3.0 0.0 23 55
+ 0.795557 1 0 ack 500 ------- 1 3.0 0.0 23 55
- 0.795557 1 0 ack 500 ------- 1 3.0 0.0 23 55
r 0.796864 2 3 tcp 1040 ------- 1 0.0 3.0 31 47
+ 0.796864 3 2 ack 500 ------- 1 3.0 0.0 31 71
- 0.796864 3 2 ack 500 ------- 1 3.0 0.0 31 71
r 0.797963 0 1 tcp 1040 ------- 1 0.0 3.0 32 60
+ 0.797963 1 2 tcp 1040 ------- 1 0.0 3.0 32 60
- 0.797963 1 2 tcp 1040 ------- 1 0.0 3.0 32 60
r 0.798795 0 1 tcp 1040 ------- 1 0.0 3.0 33 61
+ 0.798795 1 2 tcp 1040 ------- 1 0.0 3.0 33 61
r 0.799317 1 0 ack 500 ------- 1 3.0 0.0 20 52
+ 0.799317 0 1 tcp 1040 ------- 1 0.0 3.0 40 72
- 0.799317 0 1 tcp 1040 ------- 1 0.0 3.0 40 72
r 0.800624 3 2 ack 500 ------- 1 3.0 0.0 28 62
+ 0.800624 2 1 ack 500 ------- 1 3.0 0.0 28 62
- 0.800624 2 1 ack 500 ------- 1 3.0 0.0 28 62
r 0.801104 2 1 ack 500 ------- 1 3.0 0.0 24 56
+ 0.801104 1 0 ack 500 ------- 1 3.0 0.0 24 56
- 0.801104 1 0 ack 500 ------- 1 3.0 0.0 24 56
r 0.803509 0 1 tcp 1040 ------- 1 0.0 3.0 34 63
+ 0.803509 1 2 tcp 1040 ------- 1 0.0 3.0 34 63
- 0.803509 1 2 tcp 1040 ------- 1 0.0 3.0 33 61
r 0.804341 0 1 tcp 1040 ------- 1 0.0 3.0 35 64
+ 0.804341 1 2 tcp 1040 ------- 1 0.0 3.0 35 64
r 0.804864 1 0 ack 500 ------- 1 3.0 0.0 21 53
+ 0.804864 0 1 tcp 1040 ------- 1 0.0 3.0 41 73
- 0.804864 0 1 tcp 1040 ------- 1 0.0 3.0 41 73
r 0.806171 3 2 ack 500 ------- 1 3.0 0.0 29 65
+ 0.806171 2 1 ack 500 ------- 1 3.0 0.0 29 65
- 0.806171 2 1 ack 500 ------- 1 3.0 0.0 29 65
r 0.806651 2 1 ack 500 ------- 1 3.0 0.0 25 57
+ 0.806651 1 0 ack 500 ------- 1 3.0 0.0 25 57
- 0.806651 1 0 ack 500 ------- 1 3.0 0.0 25 57
r 0.809056 0 1 tcp 1040 ------- 1 0.0 3.0 36 66
+ 0.809056 1 2 tcp 1040 ------- 1 0.0 3.0 36 66
- 0.809056 1 2 tcp 1040 ------- 1 0.0 3.0 34 63
r 0.809888 0 1 tcp 1040 ------- 1 0.0 3.0 37 67
+ 0.809888 1 2 tcp 1040 ------- 1 0.0 3.0 37 67
r 0.810411 1 0 ack 500 ------- 1 3.0 0.0 22 54
+ 0.810411 0 1 tcp 1040 ------- 1 0.0 3.0 42 74
- 0.810411 0 1 tcp 1040 ------- 1 0.0 3.0 42 74
r 0.811717 3 2 ack 500 ------- 1 3.0 0.0 30 68
+ 0.811717 2 1 ack 500 ------- 1 3.0 0.0 30 68
- 0.811717 2 1 ack 500 ------- 1 3.0 0.0 30 68
r 0.812197 2 1 ack 500 ------- 1 3.0 0.0 26 58
+ 0.812197 1 0 ack 500 ------- 1 3.0 0.0 26 58
- 0.812197 1 0 ack 500 ------- 1 3.0 0.0 26 58
r 0.814603 0 1 tcp 1040 ------- 1 0.0 3.0 38 69
+ 0.814603 1 2 tcp 1040 ------- 1 0.0 3.0 38 69
- 0.814603 1 2 tcp 1040 ------- 1 0.0 3.0 35 64
r 0.815435 0 1 tcp 1040 ------- 1 0.0 3.0 39 70
+ 0.815435 1 2 tcp 1040 ------- 1 0.0 3.0 39 70
r 0.815957 1 0 ack 500 ------- 1 3.0 0.0 23 55
+ 0.815957 0 1 tcp 1040 ------- 1 0.0 3.0 43 75
- 0.815957 0 1 tcp 1040 ------- 1 0.0 3.0 43 75
r 0.817264 3 2 ack 500 ------- 1 3.0 0.0 31 71
+ 0.817264 2 1 ack 500 ------- 1 3.0 0.0 31 71
- 0.817264 2 1 ack 500 ------- 1 3.0 0.0 31 71
r 0.817744 2 1 ack 500 ------- 1 3.0 0.0 27 59
+ 0.817744 1 0 ack 500 ------- 1 3.0 0.0 27 59
- 0.817744 1 0 ack 500 ------- 1 3.0 0.0 27 59
r 0.820149 0 1 tcp 1040 ------- 1 0.0 3.0 40 72
+ 0.820149 1 2 tcp 1040 ------- 1 0.0 3.0 40 72
- 0.820149 1 2 tcp 1040 ------- 1 0.0 3.0 36 66
r 0.821504 1 0 ack 500 ------- 1 3.0 0.0 24 56
+ 0.821504 0 1 tcp 1040 ------- 1 0.0 3.0 44 76
- 0.821504 0 1 tcp 1040 ------- 1 0.0 3.0 44 76
r 0.823291 2 1 ack 500 ------- 1 3.0 0.0 28 62
+ 0.823291 1 0 ack 500 ------- 1 3.0 0.0 28 62
- 0.823291 1 0 ack 500 ------- 1 3.0 0.0 28 62
r 0.823509 1 2 tcp 1040 ------- 1 0.0 3.0 32 60
+ 0.823509 2 3 tcp 1040 ------- 1 0.0 3.0 32 60
- 0.823509 2 3 tcp 1040 ------- 1 0.0 3.0 32 60
r 0.825696 0 1 tcp 1040 ------- 1 0.0 3.0 41 73
+ 0.825696 1 2 tcp 1040 ------- 1 0.0 3.0 41 73
- 0.825696 1 2 tcp 1040 ------- 1 0.0 3.0 37 67
r 0.827051 1 0 ack 500 ------- 1 3.0 0.0 25 57
+ 0.827051 0 1 tcp 1040 ------- 1 0.0 3.0 45 77
- 0.827051 0 1 tcp 1040 ------- 1 0.0 3.0 45 77
r 0.828837 2 1 ack 500 ------- 1 3.0 0.0 29 65
+ 0.828837 1 0 ack 500 ------- 1 3.0 0.0 29 65
- 0.828837 1 0 ack 500 ------- 1 3.0 0.0 29 65
r 0.829056 1 2 tcp 1040 ------- 1 0.0 3.0 33 61
+ 0.829056 2 3 tcp 1040 ------- 1 0.0 3.0 33 61
- 0.829056 2 3 tcp 1040 ------- 1 0.0 3.0 33 61
r 0.831243 0 1 tcp 1040 ------- 1 0.0 3.0 42 74
+ 0.831243 1 2 tcp 1040 ------- 1 0.0 3.0 42 74
- 0.831243 1 2 tcp 1040 ------- 1 0.0 3.0 38 69
r 0.832597 1 0 ack 500 ------- 1 3.0 0.0 26 58
+ 0.832597 0 1 tcp 1040 ------- 1 0.0 3.0 46 78
- 0.832597 0 1 tcp 1040 ------- 1 0.0 3.0 46 78
r 0.834384 2 1 ack 500 ------- 1 3.0 0.0 30 68
+ 0.834384 1 0 ack 500 ------- 1 3.0 0.0 30 68
- 0.834384 1 0 ack 500 ------- 1 3.0 0.0 30 68
r 0.834603 1 2 tcp 1040 ------- 1 0.0 3.0 34 63
+ 0.834603 2 3 tcp 1040 ------- 1 0.0 3.0 34 63
- 0.834603 2 3 tcp 1040 ------- 1 0.0 3.0 34 63
r 0.836789 0 1 tcp 1040 ------- 1 0.0 3.0 43 75
+ 0.836789 1 2 tcp 1040 ------- 1 0.0 3.0 43 75