+ 0 1 2 cbr 210 ------- 6 1.0 2.0 0 0
- 0 1 2 cbr 210 ------- 6 1.0 2.0 0 0
+ 0.00336 1 2 cbr 210 ------- 6 1.0 2.0 1 1
- 0.00336 1 2 cbr 210 ------- 6 1.0 2.0 1 1
+ 0.00672 1 2 cbr 210 ------- 6 1.0 2.0 2 2
- 0.00672 1 2 cbr 210 ------- 6 1.0 2.0 2 2
+ 0.01008 1 2 cbr 210 ------- 6 1.0 2.0 3 3
- 0.01008 1 2 cbr 210 ------- 6 1.0 2.0 3 3
+ 0.01344 1 2 cbr 210 ------- 6 1.0 2.0 4 4
- 0.01344 1 2 cbr 210 ------- 6 1.0 2.0 4 4
+ 0.0168 1 2 cbr 210 ------- 6 1.0 2.0 5 5
- 0.0168 1 2 cbr 210 ------- 6 1.0 2.0 5 5
+ 0.02016 1 2 cbr 210 ------- 6 1.0 2.0 6 6
- 0.02016 1 2 cbr 210 ------- 6 1.0 2.0 6 6
r 0.020168 1 2 cbr 210 ------- 6 1.0 2.0 0 0
+ 0.02352 1 2 cbr 210 ------- 6 1.0 2.0 7 7
- 0.02352 1 2 cbr 210 ------- 6 1.0 2.0 7 7
r 0.023528 1 2 cbr 210 ------- 6 1.0 2.0 1 1
+ 0.02688 1 2 cbr 210 ------- 6 1.0 2.0 8 8
- 0.02688 1 2 cbr 210 ------- 6 1.0 2.0 8 8
r 0.026888 1 2 cbr 210 ------- 6 1.0 2.0 2 2
+ 0.03024 1 2 cbr 210 ------- 6 1.0 2.0 9 9
- 0.03024 1 2 cbr 210 ------- 6 1.0 2.0 9 9
r 0.030248 1 2 cbr 210 ------- 6 1.0 2.0 3 3
+ 0.0336 1 2 cbr 210 ------- 6 1.0 2.0 10 10
- 0.0336 1 2 cbr 210 ------- 6 1.0 2.0 10 10
r 0.033608 1 2 cbr 210 ------- 6 1.0 2.0 4 4
+ 0.03696 1 2 cbr 210 ------- 6 1.0 2.0 11 11
- 0.03696 1 2 cbr 210 ------- 6 1.0 2.0 11 11
r 0.036968 1 2 cbr 210 ------- 6 1.0 2.0 5 5
+ 0.04032 1 2 cbr 210 ------- 6 1.0 2.0 12 12
- 0.04032 1 2 cbr 210 ------- 6 1.0 2.0 12 12
r 0.040328 1 2 cbr 210 ------- 6 1.0 2.0 6 6
+ 0.04368 1 2 cbr 210 ------- 6 1.0 2.0 13 13
- 0.04368 1 2 cbr 210 ------- 6 1.0 2.0 13 13
r 0.043688 1 2 cbr 210 ------- 6 1.0 2.0 7 7
+ 0.04704 1 2 cbr 210 ------- 6 1.0 2.0 14 14
- 0.04704 1 2 cbr 210 ------- 6 1.0 2.0 14 14
r 0.047048 1 2 cbr 210 ------- 6 1.0 2.0 8 8
+ 0.0504 1 2 cbr 210 ------- 6 1.0 2.0 15 15
- 0.0504 1 2 cbr 210 ------- 6 1.0 2.0 15 15
r 0.050408 1 2 cbr 210 ------- 6 1.0 2.0 9 9
+ 0.05376 1 2 cbr 210 ------- 6 1.0 2.0 16 16
- 0.05376 1 2 cbr 210 ------- 6 1.0 2.0 16 16
r 0.053768 1 2 cbr 210 ------- 6 1.0 2.0 10 10
+ 0.05712 1 2 cbr 210 ------- 6 1.0 2.0 17 17
- 0.05712 1 2 cbr 210 ------- 6 1.0 2.0 17 17
r 0.057128 1 2 cbr 210 ------- 6 1.0 2.0 11 11
+ 0.06048 1 2 cbr 210 ------- 6 1.0 2.0 18 18
- 0.06048 1 2 cbr 210 ------- 6 1.0 2.0 18 18
r 0.060488 1 2 cbr 210 ------- 6 1.0 2.0 12 12
+ 0.06384 1 2 cbr 210 ------- 6 1.0 2.0 19 19
- 0.06384 1 2 cbr 210 ------- 6 1.0 2.0 19 19
r 0.063848 1 2 cbr 210 ------- 6 1.0 2.0 13 13
+ 0.0672 1 2 cbr 210 ------- 6 1.0 2.0 20 20
- 0.0672 1 2 cbr 210 ------- 6 1.0 2.0 20 20
r 0.067208 1 2 cbr 210 ------- 6 1.0 2.0 14 14
+ 0.07056 1 2 cbr 210 ------- 6 1.0 2.0 21 21
- 0.07056 1 2 cbr 210 ------- 6 1.0 2.0 21 21
r 0.070568 1 2 cbr 210 ------- 6 1.0 2.0 15 15
+ 0.07392 1 2 cbr 210 ------- 6 1.0 2.0 22 22
- 0.07392 1 2 cbr 210 ------- 6 1.0 2.0 22 22
r 0.073928 1 2 cbr 210 ------- 6 1.0 2.0 16 16
+ 0.07728 1 2 cbr 210 ------- 6 1.0 2.0 23 23
- 0.07728 1 2 cbr 210 ------- 6 1.0 2.0 23 23
r 0.077288 1 2 cbr 210 ------- 6 1.0 2.0 17 17
+ 0.08064 1 2 cbr 210 ------- 6 1.0 2.0 24 24
- 0.08064 1 2 cbr 210 ------- 6 1.0 2.0 24 24
r 0.080648 1 2 cbr 210 ------- 6 1.0 2.0 18 18
+ 0.084 1 2 cbr 210 ------- 6 1.0 2.0 25 25
- 0.084 1 2 cbr 210 ------- 6 1.0 2.0 25 25
r 0.084008 1 2 cbr 210 ------- 6 1.0 2.0 19 19
+ 0.08736 1 2 cbr 210 ------- 6 1.0 2.0 26 26
- 0.08736 1 2 cbr 210 ------- 6 1.0 2.0 26 26
r 0.087368 1 2 cbr 210 ------- 6 1.0 2.0 20 20
+ 0.09072 1 2 cbr 210 ------- 6 1.0 2.0 27 27
- 0.09072 1 2 cbr 210 ------- 6 1.0 2.0 27 27
r 0.090728 1 2 cbr 210 ------- 6 1.0 2.0 21 21
+ 0.09408 1 2 cbr 210 ------- 6 1.0 2.0 28 28
- 0.09408 1 2 cbr 210 ------- 6 1.0 2.0 28 28
r 0.094088 1 2 cbr 210 ------- 6 1.0 2.0 22 22
+ 0.09744 1 2 cbr 210 ------- 6 1.0 2.0 29 29
- 0.09744 1 2 cbr 210 ------- 6 1.0 2.0 29 29
r 0.097448 1 2 cbr 210 ------- 6 1.0 2.0 23 23
+ 0.1008 1 2 cbr 210 ------- 6 1.0 2.0 30 30
- 0.1008 1 2 cbr 210 ------- 6 1.0 2.0 30 30
r 0.100808 1 2 cbr 210 ------- 6 1.0 2.0 24 24
+ 0.10416 1 2 cbr 210 ------- 6 1.0 2.0 31 31
- 0.10416 1 2 cbr 210 ------- 6 1.0 2.0 31 31
r 0.104168 1 2 cbr 210 ------- 6 1.0 2.0 25 25
+ 0.10752 1 2 cbr 210 ------- 6 1.0 2.0 32 32
- 0.10752 1 2 cbr 210 ------- 6 1.0 2.0 32 32
r 0.107528 1 2 cbr 210 ------- 6 1.0 2.0 26 26
+ 0.11088 1 2 cbr 210 ------- 6 1.0 2.0 33 33
- 0.11088 1 2 cbr 210 ------- 6 1.0 2.0 33 33
r 0.110888 1 2 cbr 210 ------- 6 1.0 2.0 27 27
+ 0.11424 1 2 cbr 210 ------- 6 1.0 2.0 34 34
- 0.11424 1 2 cbr 210 ------- 6 1.0 2.0 34 34
r 0.114248 1 2 cbr 210 ------- 6 1.0 2.0 28 28
+ 0.1176 1 2 cbr 210 ------- 6 1.0 2.0 35 35
- 0.1176 1 2 cbr 210 ------- 6 1.0 2.0 35 35
r 0.117608 1 2 cbr 210 ------- 6 1.0 2.0 29 29
+ 0.12096 1 2 cbr 210 ------- 6 1.0 2.0 36 36
- 0.12096 1 2 cbr 210 ------- 6 1.0 2.0 36 36
r 0.120968 1 2 cbr 210 ------- 6 1.0 2.0 30 30
+ 0.12432 1 2 cbr 210 ------- 6 1.0 2.0 37 37
- 0.12432 1 2 cbr 210 ------- 6 1.0 2.0 37 37
r 0.124328 1 2 cbr 210 ------- 6 1.0 2.0 31 31
+ 0.12768 1 2 cbr 210 ------- 6 1.0 2.0 38 38
- 0.12768 1 2 cbr 210 ------- 6 1.0 2.0 38 38
r 0.127688 1 2 cbr 210 ------- 6 1.0 2.0 32 32
+ 0.13104 1 2 cbr 210 ------- 6 1.0 2.0 39 39
- 0.13104 1 2 cbr 210 ------- 6 1.0 2.0 39 39
r 0.131048 1 2 cbr 210 ------- 6 1.0 2.0 33 33
+ 0.1344 1 2 cbr 210 ------- 6 1.0 2.0 40 40
- 0.1344 1 2 cbr 210 ------- 6 1.0 2.0 40 40
r 0.134408 1 2 cbr 210 ------- 6 1.0 2.0 34 34
+ 0.13776 1 2 cbr 210 ------- 6 1.0 2.0 41 41
- 0.13776 1 2 cbr 210 ------- 6 1.0 2.0 41 41
r 0.137768 1 2 cbr 210 ------- 6 1.0 2.0 35 35
+ 0.14112 1 2 cbr 210 ------- 6 1.0 2.0 42 42
- 0.14112 1 2 cbr 210 ------- 6 1.0 2.0 42 42
r 0.141128 1 2 cbr 210 ------- 6 1.0 2.0 36 36
+ 0.14448 1 2 cbr 210 ------- 6 1.0 2.0 43 43
- 0.14448 1 2 cbr 210 ------- 6 1.0 2.0 43 43
r 0.144488 1 2 cbr 210 ------- 6 1.0 2.0 37 37
+ 0.14784 1 2 cbr 210 ------- 6 1.0 2.0 44 44
- 0.14784 1 2 cbr 210 ------- 6 1.0 2.0 44 44
r 0.147848 1 2 cbr 210 ------- 6 1.0 2.0 38 38
+ 0.1512 1 2 cbr 210 ------- 6 1.0 2.0 45 45
- 0.1512 1 2 cbr 210 ------- 6 1.0 2.0 45 45
r 0.151208 1 2 cbr 210 ------- 6 1.0 2.0 39 39
+ 0.15456 1 2 cbr 210 ------- 6 1.0 2.0 46 46
- 0.15456 1 2 cbr 210 ------- 6 1.0 2.0 46 46
r 0.154568 1 2 cbr 210 ------- 6 1.0 2.0 40 40
+ 0.15792 1 2 cbr 210 ------- 6 1.0 2.0 47 47
- 0.15792 1 2 cbr 210 ------- 6 1.0 2.0 47 47
r 0.157928 1 2 cbr 210 ------- 6 1.0 2.0 41 41
+ 0.16128 1 2 cbr 210 ------- 6 1.0 2.0 48 48
- 0.16128 1 2 cbr 210 ------- 6 1.0 2.0 48 48
r 0.161288 1 2 cbr 210 ------- 6 1.0 2.0 42 42
+ 0.16464 1 2 cbr 210 ------- 6 1.0 2.0 49 49
- 0.16464 1 2 cbr 210 ------- 6 1.0 2.0 49 49
r 0.164648 1 2 cbr 210 ------- 6 1.0 2.0 43 43
+ 0.168 1 2 cbr 210 ------- 6 1.0 2.0 50 50
- 0.168 1 2 cbr 210 ------- 6 1.0 2.0 50 50
r 0.168008 1 2 cbr 210 ------- 6 1.0 2.0 44 44
+ 0.17136 1 2 cbr 210 ------- 6 1.0 2.0 51 51
- 0.17136 1 2 cbr 210 ------- 6 1.0 2.0 51 51
r 0.171368 1 2 cbr 210 ------- 6 1.0 2.0 45 45
+ 0.17472 1 2 cbr 210 ------- 6 1.0 2.0 52 52
- 0.17472 1 2 cbr 210 ------- 6 1.0 2.0 52 52
r 0.174728 1 2 cbr 210 ------- 6 1.0 2.0 46 46
+ 0.17808 1 2 cbr 210 ------- 6 1.0 2.0 53 53
- 0.17808 1 2 cbr 210 ------- 6 1.0 2.0 53 53
r 0.178088 1 2 cbr 210 ------- 6 1.0 2.0 47 47
+ 0.18144 1 2 cbr 210 ------- 6 1.0 2.0 54 54
- 0.18144 1 2 cbr 210 ------- 6 1.0 2.0 54 54
r 0.181448 1 2 cbr 210 ------- 6 1.0 2.0 48 48
+ 0.1848 1 2 cbr 210 ------- 6 1.0 2.0 55 55
- 0.1848 1 2 cbr 210 ------- 6 1.0 2.0 55 55
r 0.184808 1 2 cbr 210 ------- 6 1.0 2.0 49 49
+ 0.18816 1 2 cbr 210 ------- 6 1.0 2.0 56 56
- 0.18816 1 2 cbr 210 ------- 6 1.0 2.0 56 56
r 0.188168 1 2 cbr 210 ------- 6 1.0 2.0 50 50
+ 0.19152 1 2 cbr 210 ------- 6 1.0 2.0 57 57
- 0.19152 1 2 cbr 210 ------- 6 1.0 2.0 57 57
r 0.191528 1 2 cbr 210 ------- 6 1.0 2.0 51 51
+ 0.19488 1 2 cbr 210 ------- 6 1.0 2.0 58 58
- 0.19488 1 2 cbr 210 ------- 6 1.0 2.0 58 58
r 0.194888 1 2 cbr 210 ------- 6 1.0 2.0 52 52
+ 0.19824 1 2 cbr 210 ------- 6 1.0 2.0 59 59
- 0.19824 1 2 cbr 210 ------- 6 1.0 2.0 59 59
r 0.198248 1 2 cbr 210 ------- 6 1.0 2.0 53 53
+ 0.2016 1 2 cbr 210 ------- 6 1.0 2.0 60 60
- 0.2016 1 2 cbr 210 ------- 6 1.0 2.0 60 60
r 0.201608 1 2 cbr 210 ------- 6 1.0 2.0 54 54
+ 0.20496 1 2 cbr 210 ------- 6 1.0 2.0 61 61
- 0.20496 1 2 cbr 210 ------- 6 1.0 2.0 61 61
r 0.204968 1 2 cbr 210 ------- 6 1.0 2.0 55 55
+ 0.20832 1 2 cbr 210 ------- 6 1.0 2.0 62 62
- 0.20832 1 2 cbr 210 ------- 6 1.0 2.0 62 62
r 0.208328 1 2 cbr 210 ------- 6 1.0 2.0 56 56
+ 0.21168 1 2 cbr 210 ------- 6 1.0 2.0 63 63
- 0.21168 1 2 cbr 210 ------- 6 1.0 2.0 63 63
r 0.211688 1 2 cbr 210 ------- 6 1.0 2.0 57 57
+ 0.21504 1 2 cbr 210 ------- 6 1.0 2.0 64 64
- 0.21504 1 2 cbr 210 ------- 6 1.0 2.0 64 64
r 0.215048 1 2 cbr 210 ------- 6 1.0 2.0 58 58
+ 0.2184 1 2 cbr 210 ------- 6 1.0 2.0 65 65
- 0.2184 1 2 cbr 210 ------- 6 1.0 2.0 65 65
r 0.218408 1 2 cbr 210 ------- 6 1.0 2.0 59 59
+ 0.22176 1 2 cbr 210 ------- 6 1.0 2.0 66 66
- 0.22176 1 2 cbr 210 ------- 6 1.0 2.0 66 66
r 0.221768 1 2 cbr 210 ------- 6 1.0 2.0 60 60
+ 0.22512 1 2 cbr 210 ------- 6 1.0 2.0 67 67
- 0.22512 1 2 cbr 210 ------- 6 1.0 2.0 67 67
r 0.225128 1 2 cbr 210 ------- 6 1.0 2.0 61 61
+ 0.22848 1 2 cbr 210 ------- 6 1.0 2.0 68 68
- 0.22848 1 2 cbr 210 ------- 6 1.0 2.0 68 68
r 0.228488 1 2 cbr 210 ------- 6 1.0 2.0 62 62
+ 0.23184 1 2 cbr 210 ------- 6 1.0 2.0 69 69
- 0.23184 1 2 cbr 210 ------- 6 1.0 2.0 69 69
r 0.231848 1 2 cbr 210 ------- 6 1.0 2.0 63 63
+ 0.2352 1 2 cbr 210 ------- 6 1.0 2.0 70 70
- 0.2352 1 2 cbr 210 ------- 6 1.0 2.0 70 70
r 0.235208 1 2 cbr 210 ------- 6 1.0 2.0 64 64
+ 0.23856 1 2 cbr 210 ------- 6 1.0 2.0 71 71
- 0.23856 1 2 cbr 210 ------- 6 1.0 2.0 71 71
r 0.238568 1 2 cbr 210 ------- 6 1.0 2.0 65 65
+ 0.24192 1 2 cbr 210 ------- 6 1.0 2.0 72 72
- 0.24192 1 2 cbr 210 ------- 6 1.0 2.0 72 72
r 0.241928 1 2 cbr 210 ------- 6 1.0 2.0 66 66
+ 0.24528 1 2 cbr 210 ------- 6 1.0 2.0 73 73
- 0.24528 1 2 cbr 210 ------- 6 1.0 2.0 73 73
r 0.245288 1 2 cbr 210 ------- 6 1.0 2.0 67 67
+ 0.24864 1 2 cbr 210 ------- 6 1.0 2.0 74 74
- 0.24864 1 2 cbr 210 ------- 6 1.0 2.0 74 74
r 0.248648 1 2 cbr 210 ------- 6 1.0 2.0 68 68
+ 0.252 1 2 cbr 210 ------- 6 1.0 2.0 75 75
- 0.252 1 2 cbr 210 ------- 6 1.0 2.0 75 75
r 0.252008 1 2 cbr 210 ------- 6 1.0 2.0 69 69
+ 0.25536 1 2 cbr 210 ------- 6 1.0 2.0 76 76
- 0.25536 1 2 cbr 210 ------- 6 1.0 2.0 76 76
r 0.255368 1 2 cbr 210 ------- 6 1.0 2.0 70 70
+ 0.25872 1 2 cbr 210 ------- 6 1.0 2.0 77 77
- 0.25872 1 2 cbr 210 ------- 6 1.0 2.0 77 77
r 0.258728 1 2 cbr 210 ------- 6 1.0 2.0 71 71
+ 0.26208 1 2 cbr 210 ------- 6 1.0 2.0 78 78
- 0.26208 1 2 cbr 210 ------- 6 1.0 2.0 78 78
r 0.262088 1 2 cbr 210 ------- 6 1.0 2.0 72 72
+ 0.26544 1 2 cbr 210 ------- 6 1.0 2.0 79 79
- 0.26544 1 2 cbr 210 ------- 6 1.0 2.0 79 79
r 0.265448 1 2 cbr 210 ------- 6 1.0 2.0 73 73
+ 0.2688 1 2 cbr 210 ------- 6 1.0 2.0 80 80
- 0.2688 1 2 cbr 210 ------- 6 1.0 2.0 80 80
r 0.268808 1 2 cbr 210 ------- 6 1.0 2.0 74 74
+ 0.27216 1 2 cbr 210 ------- 6 1.0 2.0 81 81
- 0.27216 1 2 cbr 210 ------- 6 1.0 2.0 81 81
r 0.272168 1 2 cbr 210 ------- 6 1.0 2.0 75 75
+ 0.27552 1 2 cbr 210 ------- 6 1.0 2.0 82 82
- 0.27552 1 2 cbr 210 ------- 6 1.0 2.0 82 82
r 0.275528 1 2 cbr 210 ------- 6 1.0 2.0 76 76
+ 0.27888 1 2 cbr 210 ------- 6 1.0 2.0 83 83
- 0.27888 1 2 cbr 210 ------- 6 1.0 2.0 83 83
r 0.278888 1 2 cbr 210 ------- 6 1.0 2.0 77 77
+ 0.28224 1 2 cbr 210 ------- 6 1.0 2.0 84 84
- 0.28224 1 2 cbr 210 ------- 6 1.0 2.0 84 84
r 0.282248 1 2 cbr 210 ------- 6 1.0 2.0 78 78
+ 0.2856 1 2 cbr 210 ------- 6 1.0 2.0 85 85
- 0.2856 1 2 cbr 210 ------- 6 1.0 2.0 85 85
r 0.285608 1 2 cbr 210 ------- 6 1.0 2.0 79 79
+ 0.28896 1 2 cbr 210 ------- 6 1.0 2.0 86 86
- 0.28896 1 2 cbr 210 ------- 6 1.0 2.0 86 86
r 0.288968 1 2 cbr 210 ------- 6 1.0 2.0 80 80
+ 0.29232 1 2 cbr 210 ------- 6 1.0 2.0 87 87
- 0.29232 1 2 cbr 210 ------- 6 1.0 2.0 87 87
r 0.292328 1 2 cbr 210 ------- 6 1.0 2.0 81 81
+ 0.29568 1 2 cbr 210 ------- 6 1.0 2.0 88 88
- 0.29568 1 2 cbr 210 ------- 6 1.0 2.0 88 88
r 0.295688 1 2 cbr 210 ------- 6 1.0 2.0 82 82
+ 0.29904 1 2 cbr 210 ------- 6 1.0 2.0 89 89
- 0.29904 1 2 cbr 210 ------- 6 1.0 2.0 89 89
r 0.299048 1 2 cbr 210 ------- 6 1.0 2.0 83 83
+ 0.3024 1 2 cbr 210 ------- 6 1.0 2.0 90 90
- 0.3024 1 2 cbr 210 ------- 6 1.0 2.0 90 90
r 0.302408 1 2 cbr 210 ------- 6 1.0 2.0 84 84
+ 0.30576 1 2 cbr 210 ------- 6 1.0 2.0 91 91
- 0.30576 1 2 cbr 210 ------- 6 1.0 2.0 91 91
r 0.305768 1 2 cbr 210 ------- 6 1.0 2.0 85 85
+ 0.30912 1 2 cbr 210 ------- 6 1.0 2.0 92 92
- 0.30912 1 2 cbr 210 ------- 6 1.0 2.0 92 92
r 0.309128 1 2 cbr 210 ------- 6 1.0 2.0 86 86
+ 0.31248 1 2 cbr 210 ------- 6 1.0 2.0 93 93
- 0.31248 1 2 cbr 210 ------- 6 1.0 2.0 93 93
r 0.312488 1 2 cbr 210 ------- 6 1.0 2.0 87 87
+ 0.31584 1 2 cbr 210 ------- 6 1.0 2.0 94 94
- 0.31584 1 2 cbr 210 ------- 6 1.0 2.0 94 94
r 0.315848 1 2 cbr 210 ------- 6 1.0 2.0 88 88
+ 0.3192 1 2 cbr 210 ------- 6 1.0 2.0 95 95
- 0.3192 1 2 cbr 210 ------- 6 1.0 2.0 95 95
r 0.319208 1 2 cbr 210 ------- 6 1.0 2.0 89 89
+ 0.32256 1 2 cbr 210 ------- 6 1.0 2.0 96 96
- 0.32256 1 2 cbr 210 ------- 6 1.0 2.0 96 96
r 0.322568 1 2 cbr 210 ------- 6 1.0 2.0 90 90
+ 0.32592 1 2 cbr 210 ------- 6 1.0 2.0 97 97
- 0.32592 1 2 cbr 210 ------- 6 1.0 2.0 97 97
r 0.325928 1 2 cbr 210 ------- 6 1.0 2.0 91 91
+ 0.32928 1 2 cbr 210 ------- 6 1.0 2.0 98 98
- 0.32928 1 2 cbr 210 ------- 6 1.0 2.0 98 98
r 0.329288 1 2 cbr 210 ------- 6 1.0 2.0 92 92
+ 0.33264 1 2 cbr 210 ------- 6 1.0 2.0 99 99
- 0.33264 1 2 cbr 210 ------- 6 1.0 2.0 99 99
r 0.332648 1 2 cbr 210 ------- 6 1.0 2.0 93 93
+ 0.336 1 2 cbr 210 ------- 6 1.0 2.0 100 100
- 0.336 1 2 cbr 210 ------- 6 1.0 2.0 100 100
r 0.336008 1 2 cbr 210 ------- 6 1.0 2.0 94 94
+ 0.33936 1 2 cbr 210 ------- 6 1.0 2.0 101 101
- 0.33936 1 2 cbr 210 ------- 6 1.0 2.0 101 101
r 0.339368 1 2 cbr 210 ------- 6 1.0 2.0 95 95
+ 0.34272 1 2 cbr 210 ------- 6 1.0 2.0 102 102
- 0.34272 1 2 cbr 210 ------- 6 1.0 2.0 102 102
r 0.342728 1 2 cbr 210 ------- 6 1.0 2.0 96 96
+ 0.34608 1 2 cbr 210 ------- 6 1.0 2.0 103 103
- 0.34608 1 2 cbr 210 ------- 6 1.0 2.0 103 103
r 0.346088 1 2 cbr 210 ------- 6 1.0 2.0 97 97
+ 0.34944 1 2 cbr 210 ------- 6 1.0 2.0 104 104
- 0.34944 1 2 cbr 210 ------- 6 1.0 2.0 104 104
r 0.349448 1 2 cbr 210 ------- 6 1.0 2.0 98 98
+ 0.3528 1 2 cbr 210 ------- 6 1.0 2.0 105 105
- 0.3528 1 2 cbr 210 ------- 6 1.0 2.0 105 105
r 0.352808 1 2 cbr 210 ------- 6 1.0 2.0 99 99
+ 0.35616 1 2 cbr 210 ------- 6 1.0 2.0 106 106
- 0.35616 1 2 cbr 210 ------- 6 1.0 2.0 106 106
r 0.356168 1 2 cbr 210 ------- 6 1.0 2.0 100 100
+ 0.35952 1 2 cbr 210 ------- 6 1.0 2.0 107 107
- 0.35952 1 2 cbr 210 ------- 6 1.0 2.0 107 107
r 0.359528 1 2 cbr 210 ------- 6 1.0 2.0 101 101
+ 0.36288 1 2 cbr 210 ------- 6 1.0 2.0 108 108
- 0.36288 1 2 cbr 210 ------- 6 1.0 2.0 108 108
r 0.362888 1 2 cbr 210 ------- 6 1.0 2.0 102 102
+ 0.36624 1 2 cbr 210 ------- 6 1.0 2.0 109 109
- 0.36624 1 2 cbr 210 ------- 6 1.0 2.0 109 109
r 0.366248 1 2 cbr 210 ------- 6 1.0 2.0 103 103
+ 0.3696 1 2 cbr 210 ------- 6 1.0 2.0 110 110
- 0.3696 1 2 cbr 210 ------- 6 1.0 2.0 110 110
r 0.369608 1 2 cbr 210 ------- 6 1.0 2.0 104 104
+ 0.37296 1 2 cbr 210 ------- 6 1.0 2.0 111 111
- 0.37296 1 2 cbr 210 ------- 6 1.0 2.0 111 111
r 0.372968 1 2 cbr 210 ------- 6 1.0 2.0 105 105
+ 0.37632 1 2 cbr 210 ------- 6 1.0 2.0 112 112
- 0.37632 1 2 cbr 210 ------- 6 1.0 2.0 112 112
r 0.376328 1 2 cbr 210 ------- 6 1.0 2.0 106 106
+ 0.37968 1 2 cbr 210 ------- 6 1.0 2.0 113 113
- 0.37968 1 2 cbr 210 ------- 6 1.0 2.0 113 113
r 0.379688 1 2 cbr 210 ------- 6 1.0 2.0 107 107
+ 0.38304 1 2 cbr 210 ------- 6 1.0 2.0 114 114
- 0.38304 1 2 cbr 210 ------- 6 1.0 2.0 114 114
r 0.383048 1 2 cbr 210 ------- 6 1.0 2.0 108 108
+ 0.3864 1 2 cbr 210 ------- 6 1.0 2.0 115 115
- 0.3864 1 2 cbr 210 ------- 6 1.0 2.0 115 115
r 0.386408 1 2 cbr 210 ------- 6 1.0 2.0 109 109
+ 0.38976 1 2 cbr 210 ------- 6 1.0 2.0 116 116
- 0.38976 1 2 cbr 210 ------- 6 1.0 2.0 116 116
r 0.389768 1 2 cbr 210 ------- 6 1.0 2.0 110 110
+ 0.39312 1 2 cbr 210 ------- 6 1.0 2.0 117 117
- 0.39312 1 2 cbr 210 ------- 6 1.0 2.0 117 117
r 0.393128 1 2 cbr 210 ------- 6 1.0 2.0 111 111
+ 0.39648 1 2 cbr 210 ------- 6 1.0 2.0 118 118
- 0.39648 1 2 cbr 210 ------- 6 1.0 2.0 118 118
r 0.396488 1 2 cbr 210 ------- 6 1.0 2.0 112 112
+ 0.39984 1 2 cbr 210 ------- 6 1.0 2.0 119 119
- 0.39984 1 2 cbr 210 ------- 6 1.0 2.0 119 119
r 0.399848 1 2 cbr 210 ------- 6 1.0 2.0 113 113
+ 0.4032 1 2 cbr 210 ------- 6 1.0 2.0 120 120
- 0.4032 1 2 cbr 210 ------- 6 1.0 2.0 120 120
r 0.403208 1 2 cbr 210 ------- 6 1.0 2.0 114 114
+ 0.40656 1 2 cbr 210 ------- 6 1.0 2.0 121 121
- 0.40656 1 2 cbr 210 ------- 6 1.0 2.0 121 121
r 0.406568 1 2 cbr 210 ------- 6 1.0 2.0 115 115
+ 0.40992 1 2 cbr 210 ------- 6 1.0 2.0 122 122
- 0.40992 1 2 cbr 210 ------- 6 1.0 2.0 122 122
r 0.409928 1 2 cbr 210 ------- 6 1.0 2.0 116 116
+ 0.41328 1 2 cbr 210 ------- 6 1.0 2.0 123 123
- 0.41328 1 2 cbr 210 ------- 6 1.0 2.0 123 123
r 0.413288 1 2 cbr 210 ------- 6 1.0 2.0 117 117
+ 0.41664 1 2 cbr 210 ------- 6 1.0 2.0 124 124
- 0.41664 1 2 cbr 210 ------- 6 1.0 2.0 124 124
r 0.416648 1 2 cbr 210 ------- 6 1.0 2.0 118 118
+ 0.42 1 2 cbr 210 ------- 6 1.0 2.0 125 125
- 0.42 1 2 cbr 210 ------- 6 1.0 2.0 125 125
r 0.420008 1 2 cbr 210 ------- 6 1.0 2.0 119 119
+ 0.42336 1 2 cbr 210 ------- 6 1.0 2.0 126 126
- 0.42336 1 2 cbr 210 ------- 6 1.0 2.0 126 126
r 0.423368 1 2 cbr 210 ------- 6 1.0 2.0 120 120
+ 0.42672 1 2 cbr 210 ------- 6 1.0 2.0 127 127
- 0.42672 1 2 cbr 210 ------- 6 1.0 2.0 127 127
r 0.426728 1 2 cbr 210 ------- 6 1.0 2.0 121 121
+ 0.43008 1 2 cbr 210 ------- 6 1.0 2.0 128 128
- 0.43008 1 2 cbr 210 ------- 6 1.0 2.0 128 128
r 0.430088 1 2 cbr 210 ------- 6 1.0 2.0 122 122
+ 0.43344 1 2 cbr 210 ------- 6 1.0 2.0 129 129
- 0.43344 1 2 cbr 210 ------- 6 1.0 2.0 129 129
r 0.433448 1 2 cbr 210 ------- 6 1.0 2.0 123 123
+ 0.4368 1 2 cbr 210 ------- 6 1.0 2.0 130 130
- 0.4368 1 2 cbr 210 ------- 6 1.0 2.0 130 130
r 0.436808 1 2 cbr 210 ------- 6 1.0 2.0 124 124
+ 0.44016 1 2 cbr 210 ------- 6 1.0 2.0 131 131
- 0.44016 1 2 cbr 210 ------- 6 1.0 2.0 131 131
r 0.440168 1 2 cbr 210 ------- 6 1.0 2.0 125 125
+ 0.44352 1 2 cbr 210 ------- 6 1.0 2.0 132 132
- 0.44352 1 2 cbr 210 ------- 6 1.0 2.0 132 132
r 0.443528 1 2 cbr 210 ------- 6 1.0 2.0 126 126
+ 0.44688 1 2 cbr 210 ------- 6 1.0 2.0 133 133
- 0.44688 1 2 cbr 210 ------- 6 1.0 2.0 133 133
r 0.446888 1 2 cbr 210 ------- 6 1.0 2.0 127 127
+ 0.45024 1 2 cbr 210 ------- 6 1.0 2.0 134 134
- 0.45024 1 2 cbr 210 ------- 6 1.0 2.0 134 134
r 0.450248 1 2 cbr 210 ------- 6 1.0 2.0 128 128
+ 0.4536 1 2 cbr 210 ------- 6 1.0 2.0 135 135
- 0.4536 1 2 cbr 210 ------- 6 1.0 2.0 135 135
r 0.453608 1 2 cbr 210 ------- 6 1.0 2.0 129 129
+ 0.45696 1 2 cbr 210 ------- 6 1.0 2.0 136 136
- 0.45696 1 2 cbr 210 ------- 6 1.0 2.0 136 136
r 0.456968 1 2 cbr 210 ------- 6 1.0 2.0 130 130
+ 0.46032 1 2 cbr 210 ------- 6 1.0 2.0 137 137
- 0.46032 1 2 cbr 210 ------- 6 1.0 2.0 137 137
r 0.460328 1 2 cbr 210 ------- 6 1.0 2.0 131 131
+ 0.46368 1 2 cbr 210 ------- 6 1.0 2.0 138 138
- 0.46368 1 2 cbr 210 ------- 6 1.0 2.0 138 138
r 0.463688 1 2 cbr 210 ------- 6 1.0 2.0 132 132
+ 0.46704 1 2 cbr 210 ------- 6 1.0 2.0 139 139
- 0.46704 1 2 cbr 210 ------- 6 1.0 2.0 139 139
r 0.467048 1 2 cbr 210 ------- 6 1.0 2.0 133 133
+ 0.4704 1 2 cbr 210 ------- 6 1.0 2.0 140 140
- 0.4704 1 2 cbr 210 ------- 6 1.0 2.0 140 140
r 0.470408 1 2 cbr 210 ------- 6 1.0 2.0 134 134
+ 0.47376 1 2 cbr 210 ------- 6 1.0 2.0 141 141
- 0.47376 1 2 cbr 210 ------- 6 1.0 2.0 141 141
r 0.473768 1 2 cbr 210 ------- 6 1.0 2.0 135 135
+ 0.47712 1 2 cbr 210 ------- 6 1.0 2.0 142 142
- 0.47712 1 2 cbr 210 ------- 6 1.0 2.0 142 142
r 0.477128 1 2 cbr 210 ------- 6 1.0 2.0 136 136
+ 0.48048 1 2 cbr 210 ------- 6 1.0 2.0 143 143
- 0.48048 1 2 cbr 210 ------- 6 1.0 2.0 143 143
r 0.480488 1 2 cbr 210 ------- 6 1.0 2.0 137 137
+ 0.48384 1 2 cbr 210 ------- 6 1.0 2.0 144 144
- 0.48384 1 2 cbr 210 ------- 6 1.0 2.0 144 144
r 0.483848 1 2 cbr 210 ------- 6 1.0 2.0 138 138
+ 0.4872 1 2 cbr 210 ------- 6 1.0 2.0 145 145
- 0.4872 1 2 cbr 210 ------- 6 1.0 2.0 145 145
r 0.487208 1 2 cbr 210 ------- 6 1.0 2.0 139 139
+ 0.49056 1 2 cbr 210 ------- 6 1.0 2.0 146 146
- 0.49056 1 2 cbr 210 ------- 6 1.0 2.0 146 146
r 0.490568 1 2 cbr 210 ------- 6 1.0 2.0 140 140
+ 0.49392 1 2 cbr 210 ------- 6 1.0 2.0 147 147
- 0.49392 1 2 cbr 210 ------- 6 1.0 2.0 147 147
r 0.493928 1 2 cbr 210 ------- 6 1.0 2.0 141 141
+ 0.49728 1 2 cbr 210 ------- 6 1.0 2.0 148 148
- 0.49728 1 2 cbr 210 ------- 6 1.0 2.0 148 148
r 0.497288 1 2 cbr 210 ------- 6 1.0 2.0 142 142
+ 0.50064 1 2 cbr 210 ------- 6 1.0 2.0 149 149
- 0.50064 1 2 cbr 210 ------- 6 1.0 2.0 149 149
r 0.500648 1 2 cbr 210 ------- 6 1.0 2.0 143 143
+ 0.504 1 2 cbr 210 ------- 6 1.0 2.0 150 150
- 0.504 1 2 cbr 210 ------- 6 1.0 2.0 150 150
r 0.504008 1 2 cbr 210 ------- 6 1.0 2.0 144 144
+ 0.50736 1 2 cbr 210 ------- 6 1.0 2.0 151 151
- 0.50736 1 2 cbr 210 ------- 6 1.0 2.0 151 151
r 0.507368 1 2 cbr 210 ------- 6 1.0 2.0 145 145
+ 0.51072 1 2 cbr 210 ------- 6 1.0 2.0 152 152
- 0.51072 1 2 cbr 210 ------- 6 1.0 2.0 152 152
r 0.510728 1 2 cbr 210 ------- 6 1.0 2.0 146 146
+ 0.51408 1 2 cbr 210 ------- 6 1.0 2.0 153 153
- 0.51408 1 2 cbr 210 ------- 6 1.0 2.0 153 153
r 0.514088 1 2 cbr 210 ------- 6 1.0 2.0 147 147
+ 0.51744 1 2 cbr 210 ------- 6 1.0 2.0 154 154
- 0.51744 1 2 cbr 210 ------- 6 1.0 2.0 154 154
r 0.517448 1 2 cbr 210 ------- 6 1.0 2.0 148 148
+ 0.5208 1 2 cbr 210 ------- 6 1.0 2.0 155 155
- 0.5208 1 2 cbr 210 ------- 6 1.0 2.0 155 155
r 0.520808 1 2 cbr 210 ------- 6 1.0 2.0 149 149
+ 0.52416 1 2 cbr 210 ------- 6 1.0 2.0 156 156
- 0.52416 1 2 cbr 210 ------- 6 1.0 2.0 156 156
r 0.524168 1 2 cbr 210 ------- 6 1.0 2.0 150 150
+ 0.52752 1 2 cbr 210 ------- 6 1.0 2.0 157 157
- 0.52752 1 2 cbr 210 ------- 6 1.0 2.0 157 157
r 0.527528 1 2 cbr 210 ------- 6 1.0 2.0 151 151
+ 0.53088 1 2 cbr 210 ------- 6 1.0 2.0 158 158
- 0.53088 1 2 cbr 210 ------- 6 1.0 2.0 158 158
r 0.530888 1 2 cbr 210 ------- 6 1.0 2.0 152 152
+ 0.53424 1 2 cbr 210 ------- 6 1.0 2.0 159 159
- 0.53424 1 2 cbr 210 ------- 6 1.0 2.0 159 159
r 0.534248 1 2 cbr 210 ------- 6 1.0 2.0 153 153
+ 0.5376 1 2 cbr 210 ------- 6 1.0 2.0 160 160
- 0.5376 1 2 cbr 210 ------- 6 1.0 2.0 160 160
r 0.537608 1 2 cbr 210 ------- 6 1.0 2.0 154 154
+ 0.54096 1 2 cbr 210 ------- 6 1.0 2.0 161 161
- 0.54096 1 2 cbr 210 ------- 6 1.0 2.0 161 161
r 0.540968 1 2 cbr 210 ------- 6 1.0 2.0 155 155
+ 0.54432 1 2 cbr 210 ------- 6 1.0 2.0 162 162
- 0.54432 1 2 cbr 210 ------- 6 1.0 2.0 162 162
r 0.544328 1 2 cbr 210 ------- 6 1.0 2.0 156 156
+ 0.54768 1 2 cbr 210 ------- 6 1.0 2.0 163 163
- 0.54768 1 2 cbr 210 ------- 6 1.0 2.0 163 163
r 0.547688 1 2 cbr 210 ------- 6 1.0 2.0 157 157
+ 0.55104 1 2 cbr 210 ------- 6 1.0 2.0 164 164
- 0.55104 1 2 cbr 210 ------- 6 1.0 2.0 164 164
r 0.551048 1 2 cbr 210 ------- 6 1.0 2.0 158 158
+ 0.5544 1 2 cbr 210 ------- 6 1.0 2.0 165 165
- 0.5544 1 2 cbr 210 ------- 6 1.0 2.0 165 165
r 0.554408 1 2 cbr 210 ------- 6 1.0 2.0 159 159
+ 0.55776 1 2 cbr 210 ------- 6 1.0 2.0 166 166
- 0.55776 1 2 cbr 210 ------- 6 1.0 2.0 166 166
r 0.557768 1 2 cbr 210 ------- 6 1.0 2.0 160 160
+ 0.56112 1 2 cbr 210 ------- 6 1.0 2.0 167 167
- 0.56112 1 2 cbr 210 ------- 6 1.0 2.0 167 167
r 0.561128 1 2 cbr 210 ------- 6 1.0 2.0 161 161
+ 0.56448 1 2 cbr 210 ------- 6 1.0 2.0 168 168
- 0.56448 1 2 cbr 210 ------- 6 1.0 2.0 168 168
r 0.564488 1 2 cbr 210 ------- 6 1.0 2.0 162 162
+ 0.56784 1 2 cbr 210 ------- 6 1.0 2.0 169 169
- 0.56784 1 2 cbr 210 ------- 6 1.0 2.0 169 169
r 0.567848 1 2 cbr 210 ------- 6 1.0 2.0 163 163
+ 0.5712 1 2 cbr 210 ------- 6 1.0 2.0 170 170
- 0.5712 1 2 cbr 210 ------- 6 1.0 2.0 170 170
r 0.571208 1 2 cbr 210 ------- 6 1.0 2.0 164 164
+ 0.57456 1 2 cbr 210 ------- 6 1.0 2.0 171 171
- 0.57456 1 2 cbr 210 ------- 6 1.0 2.0 171 171
r 0.574568 1 2 cbr 210 ------- 6 1.0 2.0 165 165
+ 0.57792 1 2 cbr 210 ------- 6 1.0 2.0 172 172
- 0.57792 1 2 cbr 210 ------- 6 1.0 2.0 172 172
r 0.577928 1 2 cbr 210 ------- 6 1.0 2.0 166 166
+ 0.58128 1 2 cbr 210 ------- 6 1.0 2.0 173 173
- 0.58128 1 2 cbr 210 ------- 6 1.0 2.0 173 173
r 0.581288 1 2 cbr 210 ------- 6 1.0 2.0 167 167
+ 0.58464 1 2 cbr 210 ------- 6 1.0 2.0 174 174
- 0.58464 1 2 cbr 210 ------- 6 1.0 2.0 174 174
r 0.584648 1 2 cbr 210 ------- 6 1.0 2.0 168 168
+ 0.588 1 2 cbr 210 ------- 6 1.0 2.0 175 175
- 0.588 1 2 cbr 210 ------- 6 1.0 2.0 175 175
r 0.588008 1 2 cbr 210 ------- 6 1.0 2.0 169 169
+ 0.59136 1 2 cbr 210 ------- 6 1.0 2.0 176 176
- 0.59136 1 2 cbr 210 ------- 6 1.0 2.0 176 176
r 0.591368 1 2 cbr 210 ------- 6 1.0 2.0 170 170
+ 0.59472 1 2 cbr 210 ------- 6 1.0 2.0 177 177
- 0.59472 1 2 cbr 210 ------- 6 1.0 2.0 177 177
r 0.594728 1 2 cbr 210 ------- 6 1.0 2.0 171 171
+ 0.59808 1 2 cbr 210 ------- 6 1.0 2.0 178 178
- 0.59808 1 2 cbr 210 ------- 6 1.0 2.0 178 178
r 0.598088 1 2 cbr 210 ------- 6 1.0 2.0 172 172
+ 0.60144 1 2 cbr 210 ------- 6 1.0 2.0 179 179
- 0.60144 1 2 cbr 210 ------- 6 1.0 2.0 179 179
r 0.601448 1 2 cbr 210 ------- 6 1.0 2.0 173 173
+ 0.6048 1 2 cbr 210 ------- 6 1.0 2.0 180 180
- 0.6048 1 2 cbr 210 ------- 6 1.0 2.0 180 180
r 0.604808 1 2 cbr 210 ------- 6 1.0 2.0 174 174
+ 0.60816 1 2 cbr 210 ------- 6 1.0 2.0 181 181
- 0.60816 1 2 cbr 210 ------- 6 1.0 2.0 181 181
r 0.608168 1 2 cbr 210 ------- 6 1.0 2.0 175 175
+ 0.61152 1 2 cbr 210 ------- 6 1.0 2.0 182 182
- 0.61152 1 2 cbr 210 ------- 6 1.0 2.0 182 182
r 0.611528 1 2 cbr 210 ------- 6 1.0 2.0 176 176
+ 0.61488 1 2 cbr 210 ------- 6 1.0 2.0 183 183
- 0.61488 1 2 cbr 210 ------- 6 1.0 2.0 183 183
r 0.614888 1 2 cbr 210 ------- 6 1.0 2.0 177 177
+ 0.61824 1 2 cbr 210 ------- 6 1.0 2.0 184 184
- 0.61824 1 2 cbr 210 ------- 6 1.0 2.0 184 184
r 0.618248 1 2 cbr 210 ------- 6 1.0 2.0 178 178
+ 0.6216 1 2 cbr 210 ------- 6 1.0 2.0 185 185
- 0.6216 1 2 cbr 210 ------- 6 1.0 2.0 185 185
r 0.621608 1 2 cbr 210 ------- 6 1.0 2.0 179 179
+ 0.62496 1 2 cbr 210 ------- 6 1.0 2.0 186 186
- 0.62496 1 2 cbr 210 ------- 6 1.0 2.0 186 186
r 0.624968 1 2 cbr 210 ------- 6 1.0 2.0 180 180
+ 0.62832 1 2 cbr 210 ------- 6 1.0 2.0 187 187
- 0.62832 1 2 cbr 210 ------- 6 1.0 2.0 187 187
r 0.628328 1 2 cbr 210 ------- 6 1.0 2.0 181 181
+ 0.63168 1 2 cbr 210 ------- 6 1.0 2.0 188 188
- 0.63168 1 2 cbr 210 ------- 6 1.0 2.0 188 188
r 0.631688 1 2 cbr 210 ------- 6 1.0 2.0 182 182
+ 0.63504 1 2 cbr 210 ------- 6 1.0 2.0 189 189
- 0.63504 1 2 cbr 210 ------- 6 1.0 2.0 189 189
r 0.635048 1 2 cbr 210 ------- 6 1.0 2.0 183 183
+ 0.6384 1 2 cbr 210 ------- 6 1.0 2.0 190 190
- 0.6384 1 2 cbr 210 ------- 6 1.0 2.0 190 190
r 0.638408 1 2 cbr 210 ------- 6 1.0 2.0 184 184
+ 0.64176 1 2 cbr 210 ------- 6 1.0 2.0 191 191
- 0.64176 1 2 cbr 210 ------- 6 1.0 2.0 191 191
r 0.641768 1 2 cbr 210 ------- 6 1.0 2.0 185 185
+ 0.64512 1 2 cbr 210 ------- 6 1.0 2.0 192 192
- 0.64512 1 2 cbr 210 ------- 6 1.0 2.0 192 192
r 0.645128 1 2 cbr 210 ------- 6 1.0 2.0 186 186
+ 0.64848 1 2 cbr 210 ------- 6 1.0 2.0 193 193
- 0.64848 1 2 cbr 210 ------- 6 1.0 2.0 193 193
r 0.648488 1 2 cbr 210 ------- 6 1.0 2.0 187 187
+ 0.65184 1 2 cbr 210 ------- 6 1.0 2.0 194 194
- 0.65184 1 2 cbr 210 ------- 6 1.0 2.0 194 194
r 0.651848 1 2 cbr 210 ------- 6 1.0 2.0 188 188
+ 0.6552 1 2 cbr 210 ------- 6 1.0 2.0 195 195
- 0.6552 1 2 cbr 210 ------- 6 1.0 2.0 195 195
r 0.655208 1 2 cbr 210 ------- 6 1.0 2.0 189 189
+ 0.65856 1 2 cbr 210 ------- 6 1.0 2.0 196 196
- 0.65856 1 2 cbr 210 ------- 6 1.0 2.0 196 196
r 0.658568 1 2 cbr 210 ------- 6 1.0 2.0 190 190
+ 0.66192 1 2 cbr 210 ------- 6 1.0 2.0 197 197
- 0.66192 1 2 cbr 210 ------- 6 1.0 2.0 197 197
r 0.661928 1 2 cbr 210 ------- 6 1.0 2.0 191 191
+ 0.66528 1 2 cbr 210 ------- 6 1.0 2.0 198 198
- 0.66528 1 2 cbr 210 ------- 6 1.0 2.0 198 198
r 0.665288 1 2 cbr 210 ------- 6 1.0 2.0 192 192
+ 0.66864 1 2 cbr 210 ------- 6 1.0 2.0 199 199
- 0.66864 1 2 cbr 210 ------- 6 1.0 2.0 199 199
r 0.668648 1 2 cbr 210 ------- 6 1.0 2.0 193 193
+ 0.672 1 2 cbr 210 ------- 6 1.0 2.0 200 200
- 0.672 1 2 cbr 210 ------- 6 1.0 2.0 200 200
r 0.672008 1 2 cbr 210 ------- 6 1.0 2.0 194 194
+ 0.67536 1 2 cbr 210 ------- 6 1.0 2.0 201 201
- 0.67536 1 2 cbr 210 ------- 6 1.0 2.0 201 201
r 0.675368 1 2 cbr 210 ------- 6 1.0 2.0 195 195
+ 0.67872 1 2 cbr 210 ------- 6 1.0 2.0 202 202
- 0.67872 1 2 cbr 210 ------- 6 1.0 2.0 202 202
r 0.678728 1 2 cbr 210 ------- 6 1.0 2.0 196 196
+ 0.68208 1 2 cbr 210 ------- 6 1.0 2.0 203 203
- 0.68208 1 2 cbr 210 ------- 6 1.0 2.0 203 203
r 0.682088 1 2 cbr 210 ------- 6 1.0 2.0 197 197
+ 0.68544 1 2 cbr 210 ------- 6 1.0 2.0 204 204
- 0.68544 1 2 cbr 210 ------- 6 1.0 2.0 204 204
r 0.685448 1 2 cbr 210 ------- 6 1.0 2.0 198 198
+ 0.6888 1 2 cbr 210 ------- 6 1.0 2.0 205 205
- 0.6888 1 2 cbr 210 ------- 6 1.0 2.0 205 205
r 0.688808 1 2 cbr 210 ------- 6 1.0 2.0 199 199
+ 0.69216 1 2 cbr 210 ------- 6 1.0 2.0 206 206
- 0.69216 1 2 cbr 210 ------- 6 1.0 2.0 206 206
r 0.692168 1 2 cbr 210 ------- 6 1.0 2.0 200 200
+ 0.69552 1 2 cbr 210 ------- 6 1.0 2.0 207 207
- 0.69552 1 2 cbr 210 ------- 6 1.0 2.0 207 207
r 0.695528 1 2 cbr 210 ------- 6 1.0 2.0 201 201
+ 0.69888 1 2 cbr 210 ------- 6 1.0 2.0 208 208
- 0.69888 1 2 cbr 210 ------- 6 1.0 2.0 208 208
r 0.698888 1 2 cbr 210 ------- 6 1.0 2.0 202 202
+ 0.70224 1 2 cbr 210 ------- 6 1.0 2.0 209 209
- 0.70224 1 2 cbr 210 ------- 6 1.0 2.0 209 209
r 0.702248 1 2 cbr 210 ------- 6 1.0 2.0 203 203
+ 0.7056 1 2 cbr 210 ------- 6 1.0 2.0 210 210
- 0.7056 1 2 cbr 210 ------- 6 1.0 2.0 210 210
r 0.705608 1 2 cbr 210 ------- 6 1.0 2.0 204 204
+ 0.70896 1 2 cbr 210 ------- 6 1.0 2.0 211 211
- 0.70896 1 2 cbr 210 ------- 6 1.0 2.0 211 211
r 0.708968 1 2 cbr 210 ------- 6 1.0 2.0 205 205
+ 0.71232 1 2 cbr 210 ------- 6 1.0 2.0 212 212
- 0.71232 1 2 cbr 210 ------- 6 1.0 2.0 212 212
r 0.712328 1 2 cbr 210 ------- 6 1.0 2.0 206 206
+ 0.71568 1 2 cbr 210 ------- 6 1.0 2.0 213 213
- 0.71568 1 2 cbr 210 ------- 6 1.0 2.0 213 213
r 0.715688 1 2 cbr 210 ------- 6 1.0 2.0 207 207